  52
# Step 80, RM=C2H3O2[297] (7 atoms), C6H11N2[404] d=215.810pm (19 atoms), C6H11N2[461] d=244.858pm (19 atoms), C2H3O2[4] d=254.258pm (7 atoms)
  C  -0.04866  -0.06908   0.00926
  C   0.19224   0.77012  -1.18644
  H  -0.57716   1.54032  -1.24104
  H   0.22924   0.08872  -2.03644
  H   1.16114   1.25952  -1.08794
  O  -1.02666   0.19022   0.72826
  O   0.86764  -0.89848   0.43046
  C   3.74504  -3.56128  -1.56824
  C   5.82494  -4.01632  -0.31244
  C   3.39504  -3.89292   0.55396
  C   2.29354  -3.47888   0.04286
  C   1.53024  -2.77708  -2.31304
  C   6.52404  -5.42566  -0.21734
  H   4.29444  -3.41240  -2.48604
  H   5.98674  -3.51678   0.64276
  H   6.25874  -3.54321  -1.19344
  H   3.58914  -4.05809   1.60346
  H   1.32434  -3.23820   0.45406
  H   0.89074  -1.96438  -1.96864
  H   0.76884  -3.55039  -2.41484
  H   2.07524  -2.46208  -3.20284
  H   6.34274  -5.79800   0.79096
  H   5.99884  -6.10625  -0.88754
  H   7.57524  -5.28649  -0.46954
  N   4.35394  -3.98803  -0.47794
  N   2.50364  -3.27160  -1.34014
  C  -4.11046  -0.88318   0.50496
  C  -3.55406  -0.60238   2.83786
  C  -5.14576  -2.33308   1.68816
  C  -5.43996  -2.56038   0.41846
  C  -4.81576  -1.46808  -1.82514
  C  -4.72726  -0.08598   3.72706
  H  -3.40216  -0.11878   0.22126
  H  -3.00606  -1.41168   3.32026
  H  -2.97906   0.30042   2.63166
  H  -5.50356  -2.79738   2.59536
  H  -6.11236  -3.24465  -0.07774
  H  -4.84176  -2.36308  -2.44674
  H  -5.68926  -0.89568  -2.13754
  H  -3.94346  -0.87498  -2.09964
  H  -4.43216   0.38872   4.66276
  H  -5.32786  -0.90868   4.11496
  H  -5.34096   0.68892   3.26766
  N  -4.19896  -1.29178   1.70796
  N  -4.70796  -1.65778  -0.33864
  C  -1.91936  -1.48488  -4.68624
  C  -1.63816   0.02102  -4.48624
  H  -0.54946   0.06622  -4.45674
  H  -1.90116   0.32312  -3.47254
  H  -1.98186   0.64912  -5.30804
  O  -2.70646  -2.04568  -3.94704
  O  -1.22966  -2.16518  -5.48414
