  52
# Step 46, RM=C2H3O2[177] (7 atoms), C6H11N2[269] d=221.565pm (19 atoms), C6H11N2[489] d=223.746pm (19 atoms), C2H3O2[275] d=288.447pm (7 atoms)
  C  -0.00891   0.06925  -0.01623
  C  -0.20831  -1.40215  -0.02343
  H   0.20029  -1.76495   0.91967
  H   0.31919  -1.89085  -0.84253
  H  -1.24971  -1.66315  -0.21133
  O   0.98979   0.50925  -0.60253
  O  -0.78071   0.82645   0.64077
  C  -4.28231   1.43645  -3.01823
  C  -2.61451   1.78755  -4.88873
  C  -2.25031   0.85145  -2.62793
  C  -3.02531   0.44885  -1.60143
  C  -5.51281   0.83255  -0.90133
  C  -3.64321   2.33835  -5.91233
  H  -5.15701   1.80395  -3.53433
  H  -1.72461   2.41685  -4.87453
  H  -2.29571   0.82365  -5.28543
  H  -1.20371   0.63745  -2.78663
  H  -2.83111  -0.21655  -0.77313
  H  -6.21071   1.66965  -0.91993
  H  -5.90781  -0.11465  -1.26853
  H  -5.14571   0.69915   0.11627
  H  -3.08151   2.63085  -6.79943
  H  -4.50861   1.69775  -6.08223
  H  -4.07711   3.18835  -5.38573
  N  -3.04691   1.44225  -3.51463
  N  -4.28901   0.96985  -1.78533
  C  -1.16771  -5.42105  -3.23203
  C  -0.04971  -7.73835  -2.94843
  C  -1.33821  -6.25855  -1.26333
  C  -1.73771  -4.97755  -1.28363
  C  -2.14891  -3.16515  -2.96713
  C   0.32679  -7.71525  -4.42783
  H  -0.87031  -5.33895  -4.26703
  H  -0.34521  -8.73425  -2.61843
  H   0.91089  -7.60415  -2.45103
  H  -1.20671  -7.01095  -0.49983
  H  -2.21811  -4.53735  -0.42233
  H  -1.68901  -2.88635  -3.91513
  H  -3.23791  -3.12385  -2.99243
  H  -1.90971  -2.41615  -2.21223
  H   0.91339  -6.83535  -4.69213
  H   0.88879  -8.59135  -4.75113
  H  -0.47021  -7.69985  -5.17123
  N  -0.92971  -6.58115  -2.54453
  N  -1.68121  -4.45305  -2.49303
  C  -5.19081  -3.09055   0.21257
  C  -4.27551  -3.54235   1.38237
  H  -3.27541  -3.30815   1.01777
  H  -4.46341  -2.94015   2.27127
  H  -4.45981  -4.59145   1.61377
  O  -4.64231  -2.53625  -0.74223
  O  -6.37881  -3.43415   0.41337
