  52
# Step 142, RM=C2H3O2[285] (7 atoms), C6H11N2[437] d=212.779pm (19 atoms), C6H11N2[195] d=220.434pm (19 atoms), C2H3O2[291] d=311.161pm (7 atoms)
  C   0.06838   0.10463  -0.08458
  C  -0.01632  -0.65867   1.19642
  H  -0.05922  -0.10647   2.13522
  H  -0.99852  -1.12758   1.13612
  H   0.68228  -1.49535   1.18732
  O   0.54998  -0.57537  -0.99468
  O  -0.56542   1.16323  -0.12088
  C  -2.44812  -1.89320  -3.02918
  C  -3.27302  -2.22450  -0.73178
  C  -2.08002  -3.80677  -2.29588
  C  -1.81422  -3.78444  -3.58598
  C  -1.84212  -2.02551  -5.37398
  C  -4.10172  -0.97425  -0.69698
  H  -2.75822  -0.86007  -2.97548
  H  -3.89542  -3.04886  -0.38378
  H  -2.43362  -2.17090  -0.03838
  H  -1.90162  -4.59249  -1.57678
  H  -1.43012  -4.61362  -4.16168
  H  -0.92732  -2.29523  -5.90168
  H  -2.59132  -2.31832  -6.10958
  H  -2.00512  -0.94897  -5.42508
  H  -4.83802  -1.11187  -1.48878
  H  -4.72612  -1.03727   0.19422
  H  -3.65042  -0.00557  -0.91178
  N  -2.75932  -2.65564  -2.04638
  N  -1.99352  -2.55285  -4.04398
  C  -5.11122  -2.72127   3.03302
  C  -2.79102  -2.49109   3.47642
  C  -4.51412  -3.73642   4.84722
  C  -5.82892  -3.98466   4.66802
  C  -7.48562  -3.43744   2.73002
  C  -2.41582  -1.14594   4.15452
  H  -5.03992  -2.26488   2.05682
  H  -2.13062  -3.24944   3.89702
  H  -2.67292  -2.46578   2.39312
  H  -3.82142  -4.09862   5.59242
  H  -6.56082  -4.53371   5.24192
  H  -8.29422  -3.71891   3.40462
  H  -7.36992  -4.15657   1.91912
  H  -7.72422  -2.49596   2.23532
  H  -3.27792  -0.48077   4.10602
  H  -1.56322  -0.72047   3.62522
  H  -2.18532  -1.32245   5.20512
  N  -4.14772  -2.90842   3.82352
  N  -6.13412  -3.39312   3.44442
  C   2.91217   0.73463   5.10782
  C   1.71895  -0.14287   5.36332
  H   1.63507  -0.92836   4.61232
  H   0.80007   0.43883   5.43722
  H   1.84676  -0.67877   6.30382
  O   3.80978   0.86843   5.94512
  O   2.85420   1.30003   3.98602
