LAMMPS data file. CGCMM style. atom_style full generated by VMD/TopoTools v1.7 on Thu Mar 04 18:17:14 AEDT 2021

76 atoms
74 bonds
84 angles
94 dihedrals
6 impropers
22 atom types
23 bond types
22 angle types
24 dihedral types
4 improper types
-30.000  30.000  xlo xhi
-30.000  30.000  ylo yhi
-30.000  30.000 zlo zhi

Masses

   1   11.611  # CO2 DC
   2   11.611  # CTA DC
   3   11.611  # CR DC
   4   11.611  # C1 DC
   5   11.611  # CW DC
   6   11.611  # C1A DC
   7   11.611  # CE DC
   8    1.008  # HC
   9    1.008  # HCR
  10    1.008  # H1
  11    1.008  # HCW
  12   13.607  # NA DC
  13   15.599  # O2 DC
  14    0.400  # CO2 DP
  15    0.400  # CTA DP
  16    0.400  # CR DP
  17    0.400  # C1 DP
  18    0.400  # CW DP
  19    0.400  # C1A DP
  20    0.400  # CE DP
  21    0.400  # NA DP
  22    0.400  # O2 DP

Bond Coeffs

1    316.82908      1.522    # CO2-CTA
2    655.51256      1.250    # CO2-O2
3    339.75829      1.090    # CTA-HC
4    339.75829      1.080    # CR-HCR
5    476.73641      1.315    # CR-NA
6    267.74625      1.529    # C1-CE
7    339.75829      1.090    # C1-H1
8    336.77271      1.466    # C1-NA
9    519.72867      1.341    # CW-CW
10   339.75829      1.080    # CW-HCW
11   426.81762      1.378    # CW-NA
12   339.75829      1.090    # C1A-H1
13   336.77271      1.466    # C1A-NA
14   339.75829      1.090    # CE-HC
  15   500.000000     0.000000  # CO2 DC-DP
  16   500.000000     0.000000  # CTA DC-DP
  17   500.000000     0.000000  # CR DC-DP
  18   500.000000     0.000000  # C1 DC-DP
  19   500.000000     0.000000  # CW DC-DP
  20   500.000000     0.000000  # C1A DC-DP
  21   500.000000     0.000000  # CE DC-DP
  22   500.000000     0.000000  # NA DC-DP
  23   500.000000     0.000000  # O2 DC-DP

Angle Coeffs

1     35.69552    109.500    # CO2-CTA-HC
2     69.95796    117.000    # CTA-CO2-O2
3     69.95796    126.400    # CR-NA-C1
4     69.95796    108.000    # CR-NA-CW
5     69.95796    126.400    # CR-NA-C1A
6     37.47492    110.700    # C1-CE-HC
7     69.95796    125.600    # C1-NA-CW
8     34.97898    130.900    # CW-CW-HCW
9     69.95796    107.100    # CW-CW-NA
10    69.95796    125.600    # CW-NA-C1A
11    37.47492    110.700    # CE-C1-H1
12    58.31423    112.700    # CE-C1-NA
13    32.97268    107.800    # HC-CTA-HC
14    32.97268    107.800    # HC-CE-HC
15    34.97898    125.100    # HCR-CR-NA
16    32.97268    107.800    # H1-C1-H1
17    37.47492    110.700    # H1-C1-NA
18    32.97268    107.800    # H1-C1A-H1
19    37.47492    110.700    # H1-C1A-NA
20    34.97898    122.000    # HCW-CW-NA
21    69.95796    109.800    # NA-CR-NA
22    79.94172    126.000    # O2-CO2-O2

Dihedral Coeffs

1      0.00000    2.99799    0.00000    0.00000   # CW-CW-NA-CR
2      0.00000    2.99799    0.00000    0.00000   # CW-CW-NA-C1
3      0.00000    2.99799    0.00000    0.00000   # CW-CW-NA-C1A
4     -1.25850    0.00000    0.00000    0.00000   # CE-C1-NA-CR
5     -1.70858    1.45849    0.18962    0.00000   # CE-C1-NA-CW
6      0.00000    4.64794    0.00000    0.00000   # HCR-CR-NA-C1
7      0.00000    4.64794    0.00000    0.00000   # HCR-CR-NA-CW
8      0.00000    4.64794    0.00000    0.00000   # HCR-CR-NA-C1A
9      0.00000    0.00000    0.29980    0.00000   # H1-C1-CE-HC
10     0.00000    0.00000    0.00000    0.00000   # H1-C1-NA-CR
11     0.00000    0.00000    0.12396    0.00000   # H1-C1-NA-CW
12     0.00000    0.00000    0.00000    0.00000   # H1-C1A-NA-CR
13     0.00000    0.00000    0.12396    0.00000   # H1-C1A-NA-CW
14     0.00000   10.74329    0.00000    0.00000   # HCW-CW-CW-HCW
15     0.00000   10.74329    0.00000    0.00000   # HCW-CW-CW-NA
16     0.00000    2.99799    0.00000    0.00000   # HCW-CW-NA-CR
17     0.00000    2.99799    0.00000    0.00000   # HCW-CW-NA-C1
18     0.00000    2.99799    0.00000    0.00000   # HCW-CW-NA-C1A
19     0.00000    4.64794    0.00000    0.00000   # NA-CR-NA-C1
20     0.00000    4.64794    0.00000    0.00000   # NA-CR-NA-CW
21     0.00000    4.64794    0.00000    0.00000   # NA-CR-NA-C1A
22     0.00000    0.00000    0.08766    0.00000   # NA-C1-CE-HC
23     0.00000   10.74329    0.00000    0.00000   # NA-CW-CW-NA
24     0.00000    0.00000    0.00000    0.00000   # O2-CO2-CTA-HC

Improper Coeffs

1     10.49298   -1   2   # CTA-O2-CO2-O2
2      0.99933   -1   2   # CR-CW-NA-C1A
3      1.09926   -1   2   # CW-HCW-CW-NA
4      1.09926   -1   2   # HCR-NA-CR-NA

Atoms

      1       1    1   2.7771 -8.173000e-02 -2.689000e-02 -3.539000e-02  # CO2 DC
      2       1    2   2.1655  9.681700e-01  9.094600e-01  4.821100e-01  # CTA DC
      3       1    8   0.0600  1.771570e+00  1.061210e+00 -2.387900e-01  # HC
      4       1    8   0.0600  5.574700e-01  1.918100e+00  5.274100e-01  # HC
      5       1    8   0.0600  1.252270e+00  6.580100e-01  1.503910e+00  # HC
      6       1   13   1.0565 -9.397300e-01 -4.957500e-01  7.766100e-01  # O2 DC
      7       1   13   1.0565  4.867000e-02 -3.959600e-01 -1.224890e+00  # O2 DC
      8       2    3   1.9765 -2.369230e+00 -1.634170e+00 -2.466190e+00  # CR DC
      9       2    4   2.0677 -3.765630e+00 -5.871000e-02 -1.068390e+00  # C1 DC
     10       2    5   1.9565 -4.195530e+00 -2.479080e+00 -1.765390e+00  # CW DC
     11       2    5   1.9565 -3.478230e+00 -3.482080e+00 -2.276990e+00  # CW DC
     12       2    6   2.2755 -1.252030e+00 -3.566480e+00 -3.639590e+00  # C1A DC
     13       2    7   2.3955 -5.266130e+00  1.181900e-01 -7.740900e-01  # CE DC
     14       2    9   0.2100 -1.495030e+00 -1.026620e+00 -2.647990e+00  # HCR
     15       2   10   0.1300 -3.442730e+00  8.060200e-01 -1.648190e+00  # H1
     16       2   10   0.1300 -3.066130e+00  2.086300e-01 -2.763900e-01  # H1
     17       2   11   0.2100 -5.127630e+00 -2.538080e+00 -1.222990e+00  # HCW
     18       2   11   0.2100 -3.701230e+00 -4.538180e+00 -2.313990e+00  # HCW
     19       2   10   0.1300 -2.833300e-01 -3.071560e+00 -3.570690e+00  # H1
     20       2   10   0.1300 -1.249430e+00 -4.634420e+00 -3.421390e+00  # H1
     21       2   10   0.1300 -1.629830e+00 -3.480070e+00 -4.658290e+00  # H1
     22       2    8   0.0600 -5.721330e+00 -6.349800e-01 -1.308900e-01  # HC
     23       2    8   0.0600 -5.587430e+00  1.085820e+00 -3.885900e-01  # HC
     24       2    8   0.0600 -5.787030e+00 -2.857000e-02 -1.720190e+00  # HC
     25       2   12   2.0577 -3.442930e+00 -1.318690e+00 -1.837290e+00  # NA DC
     26       2   12   2.0577 -2.338230e+00 -2.941120e+00 -2.837890e+00  # NA DC
     27       3    3   1.9765 -1.334630e+00 -5.429760e+00 -3.429000e-02  # CR DC
     28       3    4   2.0677 -3.310030e+00 -6.917460e+00  3.241100e-01  # C1 DC
     29       3    5   1.9565 -3.133730e+00 -4.492960e+00  8.230100e-01  # CW DC
     30       3    5   1.9565 -2.153530e+00 -3.589860e+00  7.597100e-01  # CW DC
     31       3    6   2.2755  1.915700e-01 -3.523460e+00 -1.612900e-01  # C1A DC
     32       3    7   2.3955 -2.428530e+00 -8.137660e+00 -8.779000e-02  # CE DC
     33       3    9   0.2100 -5.827300e-01 -6.132660e+00 -3.613900e-01  # HCR
     34       3   10   0.1300 -3.748930e+00 -7.187360e+00  1.284610e+00  # H1
     35       3   10   0.1300 -4.201030e+00 -6.896360e+00 -3.033900e-01  # H1
     36       3   11   0.2100 -4.153330e+00 -4.284760e+00  1.112010e+00  # HCW
     37       3   11   0.2100 -2.191130e+00 -2.543760e+00  1.025210e+00  # HCW
     38       3   10   0.1300  9.935700e-01 -4.218860e+00 -4.088900e-01  # H1
     39       3   10   0.1300  2.387700e-01 -2.753260e+00 -9.311900e-01  # H1
     40       3   10   0.1300  3.957700e-01 -2.936360e+00  7.341100e-01  # H1
     41       3    8   0.0600 -1.917530e+00 -7.979160e+00 -1.037490e+00  # HC
     42       3    8   0.0600 -1.718930e+00 -8.198260e+00  7.374100e-01  # HC
     43       3    8   0.0600 -2.924930e+00 -9.107860e+00 -1.039900e-01  # HC
     44       3   12   2.0577 -2.575130e+00 -5.657560e+00  3.195100e-01  # NA DC
     45       3   12   2.0577 -1.036130e+00 -4.171960e+00  1.876100e-01  # NA DC
     46       4    1   2.7771  4.224700e-01  2.026690e+00  5.287310e+00  # CO2 DC
     47       4    2   2.1655  1.581270e+00  1.730150e+00  4.349610e+00  # CTA DC
     48       4    8   0.0600  1.552370e+00  6.617900e-01  4.135410e+00  # HC
     49       4    8   0.0600  1.405770e+00  2.290700e+00  3.431410e+00  # HC
     50       4    8   0.0600  2.564670e+00  2.034390e+00  4.707910e+00  # HC
     51       4   13   1.0565 -5.219300e-01  2.715410e+00  4.822310e+00  # O2 DC
     52       4   13   1.0565  5.097700e-01  1.520870e+00  6.417710e+00  # O2 DC
     53       1   14  -2.0771 -1.264936e-01 -6.817133e-02 -4.466582e-02  # CO2 DP
     54       1   15  -2.4455  9.289400e-01  9.495799e-01  4.359254e-01  # CTA DP
     55       1   22  -1.8565 -9.361098e-01 -5.125302e-01  8.118187e-01  # O2 DP
     56       1   22  -1.8565  1.463624e-02 -4.122383e-01 -1.241510e+00  # O2 DP
     57       2   16  -2.0865 -2.394714e+00 -1.684003e+00 -2.472562e+00  # CR DP
     58       2   17  -2.2377 -3.806869e+00 -4.895005e-02 -1.111402e+00  # C1 DP
     59       2   18  -2.0865 -4.213984e+00 -2.484248e+00 -1.724850e+00  # CW DP
     60       2   18  -2.0865 -3.518954e+00 -3.517862e+00 -2.247983e+00  # CW DP
     61       2   19  -2.4455 -1.299906e+00 -3.525365e+00 -3.632249e+00  # C1A DP
     62       2   20  -2.4455 -5.289598e+00  1.519738e-01 -7.472105e-01  # CE DP
     63       2   21  -1.9077 -3.458584e+00 -1.288540e+00 -1.866604e+00  # NA DP
     64       2   21  -1.9077 -2.327340e+00 -2.938413e+00 -2.806956e+00  # NA DP
     65       3   16  -2.0865 -1.353104e+00 -5.439936e+00 -7.362091e-03  # CR DP
     66       3   17  -2.2377 -3.308755e+00 -6.898976e+00  3.379453e-01  # C1 DP
     67       3   18  -2.0865 -3.117064e+00 -4.453950e+00  8.216236e-01  # CW DP
     68       3   18  -2.0865 -2.136683e+00 -3.602408e+00  7.128941e-01  # CW DP
     69       3   19  -2.4455  2.169873e-01 -3.555314e+00 -1.292710e-01  # C1A DP
     70       3   20  -2.4455 -2.387165e+00 -8.121853e+00 -1.207773e-01  # CE DP
     71       3   21  -1.9077 -2.591438e+00 -5.668441e+00  2.768391e-01  # NA DP
     72       3   21  -1.9077 -1.040453e+00 -4.164643e+00  1.712206e-01  # NA DP
     73       4   14  -2.0771  3.913762e-01  1.985506e+00  5.300142e+00  # CO2 DP
     74       4   15  -2.4455  1.532553e+00  1.715341e+00  4.322523e+00  # CTA DP
     75       4   22  -1.8565 -5.187303e-01  2.737776e+00  4.863225e+00  # O2 DP
     76       4   22  -1.8565  5.236501e-01  1.570049e+00  6.464116e+00  # O2 DP

Bonds

1 2 1 7
2 2 1 6
3 1 1 2
4 3 2 3
5 3 2 4
6 3 2 5
7 4 8 14
8 5 8 26
9 5 8 25
10 6 9 13
11 7 9 15
12 7 9 16
13 8 9 25
14 10 10 17
15 11 10 25
16 9 10 11
17 11 11 26
18 10 11 18
19 13 12 26
20 12 12 19
21 12 12 20
22 12 12 21
23 14 13 24
24 14 13 22
25 14 13 23
26 4 27 33
27 5 27 45
28 5 27 44
29 8 28 44
30 7 28 35
31 6 28 32
32 7 28 34
33 9 29 30
34 10 29 36
35 11 29 44
36 11 30 45
37 10 30 37
38 12 31 39
39 13 31 45
40 12 31 38
41 12 31 40
42 14 32 41
43 14 32 42
44 14 32 43
45 1 46 47
46 2 46 52
47 2 46 51
48 3 47 48
49 3 47 49
50 3 47 50
     51   15       1      53  # CO2 DC-DP
     52   16       2      54  # CTA DC-DP
     53   23       6      55  # O2 DC-DP
     54   23       7      56  # O2 DC-DP
     55   17       8      57  # CR DC-DP
     56   18       9      58  # C1 DC-DP
     57   19      10      59  # CW DC-DP
     58   19      11      60  # CW DC-DP
     59   20      12      61  # C1A DC-DP
     60   21      13      62  # CE DC-DP
     61   22      25      63  # NA DC-DP
     62   22      26      64  # NA DC-DP
     63   17      27      65  # CR DC-DP
     64   18      28      66  # C1 DC-DP
     65   19      29      67  # CW DC-DP
     66   19      30      68  # CW DC-DP
     67   20      31      69  # C1A DC-DP
     68   21      32      70  # CE DC-DP
     69   22      44      71  # NA DC-DP
     70   22      45      72  # NA DC-DP
     71   15      46      73  # CO2 DC-DP
     72   16      47      74  # CTA DC-DP
     73   23      51      75  # O2 DC-DP
     74   23      52      76  # O2 DC-DP

Angles

1 22 6 1 7
2 2 2 1 7
3 2 2 1 6
4 1 1 2 3
5 1 1 2 4
6 1 1 2 5
7 13 3 2 4
8 13 3 2 5
9 13 4 2 5
10 15 14 8 26
11 15 14 8 25
12 21 25 8 26
13 11 13 9 15
14 11 13 9 16
15 12 13 9 25
16 16 15 9 16
17 17 15 9 25
18 17 16 9 25
19 20 17 10 25
20 8 11 10 17
21 9 11 10 25
22 9 10 11 26
23 8 10 11 18
24 20 18 11 26
25 19 19 12 26
26 19 20 12 26
27 19 21 12 26
28 18 19 12 20
29 18 19 12 21
30 18 20 12 21
31 6 9 13 24
32 6 9 13 22
33 6 9 13 23
34 14 22 13 24
35 14 23 13 24
36 14 22 13 23
37 3 8 25 9
38 4 8 25 10
39 7 9 25 10
40 4 8 26 11
41 5 8 26 12
42 10 11 26 12
43 15 33 27 45
44 15 33 27 44
45 21 44 27 45
46 17 35 28 44
47 12 32 28 44
48 17 34 28 44
49 11 32 28 35
50 16 34 28 35
51 11 32 28 34
52 8 30 29 36
53 9 30 29 44
54 20 36 29 44
55 9 29 30 45
56 8 29 30 37
57 20 37 30 45
58 19 39 31 45
59 18 38 31 39
60 18 39 31 40
61 19 38 31 45
62 19 40 31 45
63 18 38 31 40
64 6 28 32 41
65 6 28 32 42
66 6 28 32 43
67 14 41 32 42
68 14 41 32 43
69 14 42 32 43
70 3 27 44 28
71 4 27 44 29
72 7 28 44 29
73 4 27 45 30
74 5 27 45 31
75 10 30 45 31
76 2 47 46 52
77 2 47 46 51
78 22 51 46 52
79 1 46 47 48
80 1 46 47 49
81 1 46 47 50
82 13 48 47 49
83 13 48 47 50
84 13 49 47 50

Dihedrals

1 24 7 1 2 3
2 24 7 1 2 4
3 24 7 1 2 5
4 24 6 1 2 3
5 24 6 1 2 4
6 24 6 1 2 5
7 7 14 8 26 11
8 8 14 8 26 12
9 20 25 8 26 11
10 21 25 8 26 12
11 6 14 8 25 9
12 7 14 8 25 10
13 19 26 8 25 9
14 20 26 8 25 10
15 9 15 9 13 24
16 9 15 9 13 22
17 9 15 9 13 23
18 9 16 9 13 24
19 9 16 9 13 22
20 9 16 9 13 23
21 22 25 9 13 24
22 22 25 9 13 22
23 22 25 9 13 23
24 4 13 9 25 8
25 5 13 9 25 10
26 10 15 9 25 8
27 11 15 9 25 10
28 10 16 9 25 8
29 11 16 9 25 10
30 16 17 10 25 8
31 17 17 10 25 9
32 1 11 10 25 8
33 2 11 10 25 9
34 15 17 10 11 26
35 14 17 10 11 18
36 23 25 10 11 26
37 15 25 10 11 18
38 1 10 11 26 8
39 3 10 11 26 12
40 16 18 11 26 8
41 18 18 11 26 12
42 12 19 12 26 8
43 13 19 12 26 11
44 12 20 12 26 8
45 13 20 12 26 11
46 12 21 12 26 8
47 13 21 12 26 11
48 7 33 27 45 30
49 8 33 27 45 31
50 20 44 27 45 30
51 21 44 27 45 31
52 6 33 27 44 28
53 7 33 27 44 29
54 19 45 27 44 28
55 20 45 27 44 29
56 10 35 28 44 27
57 11 35 28 44 29
58 4 32 28 44 27
59 5 32 28 44 29
60 10 34 28 44 27
61 11 34 28 44 29
62 22 44 28 32 41
63 22 44 28 32 42
64 22 44 28 32 43
65 9 35 28 32 41
66 9 35 28 32 42
67 9 35 28 32 43
68 9 34 28 32 41
69 9 34 28 32 42
70 9 34 28 32 43
71 15 36 29 30 45
72 14 36 29 30 37
73 23 44 29 30 45
74 15 44 29 30 37
75 1 30 29 44 27
76 2 30 29 44 28
77 16 36 29 44 27
78 17 36 29 44 28
79 1 29 30 45 27
80 3 29 30 45 31
81 16 37 30 45 27
82 18 37 30 45 31
83 12 39 31 45 27
84 13 39 31 45 30
85 12 38 31 45 27
86 13 38 31 45 30
87 12 40 31 45 27
88 13 40 31 45 30
89 24 52 46 47 48
90 24 52 46 47 49
91 24 52 46 47 50
92 24 51 46 47 48
93 24 51 46 47 49
94 24 51 46 47 50

Impropers

1 4 25 8 26 14
2 3 26 11 18 10
3 2 8 11 26 12
4 3 45 30 37 29
5 2 27 30 45 31
6 1 51 46 52 47
