LAMMPS data file. CGCMM style. atom_style full generated by VMD/TopoTools v1.7 on Thu Mar 04 18:17:14 AEDT 2021

 52 atoms
 50 bonds
 84 angles
 94 dihedrals
 6 impropers
 13 atom types
 14 bond types
 22 angle types
 24 dihedral types
 4 improper types
-6.787  3.565  xlo xhi
-10.108  3.715  ylo yhi
-5.658  7.418  zlo zhi

Pair Coeffs

1      0.10493      3.750    # CO2
2      0.06595      3.500    # CTA
3      0.06995      3.550    # CR
4      0.06595      3.500    # C1
5      0.06995      3.550    # CW
6      0.06595      3.500    # C1A
7      0.06595      3.500    # CE
8      0.02998      2.500    # HC
9      0.02998      2.420    # HCR
10     0.02998      2.500    # H1
11     0.02998      2.420    # HCW
12     0.16989      3.250    # NA
13     0.20986      2.960    # O2

Bond Coeffs

1    316.82908      1.522    # CO2-CTA
2    655.51256      1.250    # CO2-O2
3    339.75829      1.090    # CTA-HC
4    339.75829      1.080    # CR-HCR
5    476.73641      1.315    # CR-NA
6    267.74625      1.529    # C1-CE
7    339.75829      1.090    # C1-H1
8    336.77271      1.466    # C1-NA
9    519.72867      1.341    # CW-CW
10   339.75829      1.080    # CW-HCW
11   426.81762      1.378    # CW-NA
12   339.75829      1.090    # C1A-H1
13   336.77271      1.466    # C1A-NA
14   339.75829      1.090    # CE-HC

Angle Coeffs

1     35.69552    109.500    # CO2-CTA-HC
2     69.95796    117.000    # CTA-CO2-O2
3     69.95796    126.400    # CR-NA-C1
4     69.95796    108.000    # CR-NA-CW
5     69.95796    126.400    # CR-NA-C1A
6     37.47492    110.700    # C1-CE-HC
7     69.95796    125.600    # C1-NA-CW
8     34.97898    130.900    # CW-CW-HCW
9     69.95796    107.100    # CW-CW-NA
10    69.95796    125.600    # CW-NA-C1A
11    37.47492    110.700    # CE-C1-H1
12    58.31423    112.700    # CE-C1-NA
13    32.97268    107.800    # HC-CTA-HC
14    32.97268    107.800    # HC-CE-HC
15    34.97898    125.100    # HCR-CR-NA
16    32.97268    107.800    # H1-C1-H1
17    37.47492    110.700    # H1-C1-NA
18    32.97268    107.800    # H1-C1A-H1
19    37.47492    110.700    # H1-C1A-NA
20    34.97898    122.000    # HCW-CW-NA
21    69.95796    109.800    # NA-CR-NA
22    79.94172    126.000    # O2-CO2-O2

Dihedral Coeffs

1      0.00000    2.99799    0.00000    0.00000   # CW-CW-NA-CR
2      0.00000    2.99799    0.00000    0.00000   # CW-CW-NA-C1
3      0.00000    2.99799    0.00000    0.00000   # CW-CW-NA-C1A
4     -1.25850    0.00000    0.00000    0.00000   # CE-C1-NA-CR
5     -1.70858    1.45849    0.18962    0.00000   # CE-C1-NA-CW
6      0.00000    4.64794    0.00000    0.00000   # HCR-CR-NA-C1
7      0.00000    4.64794    0.00000    0.00000   # HCR-CR-NA-CW
8      0.00000    4.64794    0.00000    0.00000   # HCR-CR-NA-C1A
9      0.00000    0.00000    0.29980    0.00000   # H1-C1-CE-HC
10     0.00000    0.00000    0.00000    0.00000   # H1-C1-NA-CR
11     0.00000    0.00000    0.12396    0.00000   # H1-C1-NA-CW
12     0.00000    0.00000    0.00000    0.00000   # H1-C1A-NA-CR
13     0.00000    0.00000    0.12396    0.00000   # H1-C1A-NA-CW
14     0.00000   10.74329    0.00000    0.00000   # HCW-CW-CW-HCW
15     0.00000   10.74329    0.00000    0.00000   # HCW-CW-CW-NA
16     0.00000    2.99799    0.00000    0.00000   # HCW-CW-NA-CR
17     0.00000    2.99799    0.00000    0.00000   # HCW-CW-NA-C1
18     0.00000    2.99799    0.00000    0.00000   # HCW-CW-NA-C1A
19     0.00000    4.64794    0.00000    0.00000   # NA-CR-NA-C1
20     0.00000    4.64794    0.00000    0.00000   # NA-CR-NA-CW
21     0.00000    4.64794    0.00000    0.00000   # NA-CR-NA-C1A
22     0.00000    0.00000    0.08766    0.00000   # NA-C1-CE-HC
23     0.00000   10.74329    0.00000    0.00000   # NA-CW-CW-NA
24     0.00000    0.00000    0.00000    0.00000   # O2-CO2-CTA-HC

Improper Coeffs

1     10.49298   -1   2   # CTA-O2-CO2-O2
2      0.99933   -1   2   # CR-CW-NA-C1A
3      1.09926   -1   2   # CW-HCW-CW-NA
4      1.09926   -1   2   # HCR-NA-CR-NA

 Masses

 1 12.010700 # CO2
 2 12.010700 # CTA
 3 12.010700 # CR
 4 12.010700 # C1
 5 12.010700 # CW
 6 12.010700 # C1A
 7 12.010700 # CE
 8 1.007940 # HC
 9 1.007940 # HCR
 10 1.007940 # H1
 11 1.007940 # HCW
 12 14.006700 # NA
 13 15.999400 # O2

 Atoms # full

1    1   1    0.700   -0.081730   -0.026890   -0.035390   # CO2
2    1   2   -0.280    0.968170    0.909460    0.482110   # CTA
3    1   8    0.060    1.771570    1.061210   -0.238790   # HC
4    1   8    0.060    0.557470    1.918100    0.527410   # HC
5    1   8    0.060    1.252270    0.658010    1.503910   # HC
6    1   13  -0.800   -0.939730   -0.495750    0.776610   # O2
7    1   13  -0.800    0.048670   -0.395960   -1.224890   # O2
8    2   3   -0.110   -2.369230   -1.634170   -2.466190   # CR
9    2   4   -0.170   -3.765630   -0.058710   -1.068390   # C1
10   2   5   -0.130   -4.195530   -2.479080   -1.765390   # CW
11   2   5   -0.130   -3.478230   -3.482080   -2.276990   # CW
12   2   6   -0.170   -1.252030   -3.566480   -3.639590   # C1A
13   2   7   -0.050   -5.266130    0.118190   -0.774090   # CE
14   2   9    0.210   -1.495030   -1.026620   -2.647990   # HCR
15   2   10   0.130   -3.442730    0.806020   -1.648190   # H1
16   2   10   0.130   -3.066130    0.208630   -0.276390   # H1
17   2   11   0.210   -5.127630   -2.538080   -1.222990   # HCW
18   2   11   0.210   -3.701230   -4.538180   -2.313990   # HCW
19   2   10   0.130   -0.283330   -3.071560   -3.570690   # H1
20   2   10   0.130   -1.249430   -4.634420   -3.421390   # H1
21   2   10   0.130   -1.629830   -3.480070   -4.658290   # H1
22   2   8    0.060   -5.721330   -0.634980   -0.130890   # HC
23   2   8    0.060   -5.587430    1.085820   -0.388590   # HC
24   2   8    0.060   -5.787030   -0.028570   -1.720190   # HC
25   2   12   0.150   -3.442930   -1.318690   -1.837290   # NA
26   2   12   0.150   -2.338230   -2.941120   -2.837890   # NA
27   3   3   -0.110   -1.334630   -5.429760   -0.034290   # CR
28   3   4   -0.170   -3.310030   -6.917460    0.324110   # C1
29   3   5   -0.130   -3.133730   -4.492960    0.823010   # CW
30   3   5   -0.130   -2.153530   -3.589860    0.759710   # CW
31   3   6   -0.170    0.191570   -3.523460   -0.161290   # C1A
32   3   7   -0.050   -2.428530   -8.137660   -0.087790   # CE
33   3   9    0.210   -0.582730   -6.132660   -0.361390   # HCR
34   3   10   0.130   -3.748930   -7.187360    1.284610   # H1
35   3   10   0.130   -4.201030   -6.896360   -0.303390   # H1
36   3   11   0.210   -4.153330   -4.284760    1.112010   # HCW
37   3   11   0.210   -2.191130   -2.543760    1.025210   # HCW
38   3   10   0.130    0.993570   -4.218860   -0.408890   # H1
39   3   10   0.130    0.238770   -2.753260   -0.931190   # H1
40   3   10   0.130    0.395770   -2.936360    0.734110   # H1
41   3   8    0.060   -1.917530   -7.979160   -1.037490   # HC
42   3   8    0.060   -1.718930   -8.198260    0.737410   # HC
43   3   8    0.060   -2.924930   -9.107860   -0.103990   # HC
44   3   12   0.150   -2.575130   -5.657560    0.319510   # NA
45   3   12   0.150   -1.036130   -4.171960    0.187610   # NA
46   4   1    0.700    0.422470    2.026690    5.287310   # CO2
47   4   2   -0.280    1.581270    1.730150    4.349610   # CTA
48   4   8    0.060    1.552370    0.661790    4.135410   # HC
49   4   8    0.060    1.405770    2.290700    3.431410   # HC
50   4   8    0.060    2.564670    2.034390    4.707910   # HC
51   4   13  -0.800   -0.521930    2.715410    4.822310   # O2
52   4   13  -0.800    0.509770    1.520870    6.417710   # O2

 Bonds

1 2 1 7
2 2 1 6
3 1 1 2
4 3 2 3
5 3 2 4
6 3 2 5
7 4 8 14
8 5 8 26
9 5 8 25
10 6 9 13
11 7 9 15
12 7 9 16
13 8 9 25
14 10 10 17
15 11 10 25
16 9 10 11
17 11 11 26
18 10 11 18
19 13 12 26
20 12 12 19
21 12 12 20
22 12 12 21
23 14 13 24
24 14 13 22
25 14 13 23
26 4 27 33
27 5 27 45
28 5 27 44
29 8 28 44
30 7 28 35
31 6 28 32
32 7 28 34
33 9 29 30
34 10 29 36
35 11 29 44
36 11 30 45
37 10 30 37
38 12 31 39
39 13 31 45
40 12 31 38
41 12 31 40
42 14 32 41
43 14 32 42
44 14 32 43
45 1 46 47
46 2 46 52
47 2 46 51
48 3 47 48
49 3 47 49
50 3 47 50

 Angles

1 22 6 1 7
2 2 2 1 7
3 2 2 1 6
4 1 1 2 3
5 1 1 2 4
6 1 1 2 5
7 13 3 2 4
8 13 3 2 5
9 13 4 2 5
10 15 14 8 26
11 15 14 8 25
12 21 25 8 26
13 11 13 9 15
14 11 13 9 16
15 12 13 9 25
16 16 15 9 16
17 17 15 9 25
18 17 16 9 25
19 20 17 10 25
20 8 11 10 17
21 9 11 10 25
22 9 10 11 26
23 8 10 11 18
24 20 18 11 26
25 19 19 12 26
26 19 20 12 26
27 19 21 12 26
28 18 19 12 20
29 18 19 12 21
30 18 20 12 21
31 6 9 13 24
32 6 9 13 22
33 6 9 13 23
34 14 22 13 24
35 14 23 13 24
36 14 22 13 23
37 3 8 25 9
38 4 8 25 10
39 7 9 25 10
40 4 8 26 11
41 5 8 26 12
42 10 11 26 12
43 15 33 27 45
44 15 33 27 44
45 21 44 27 45
46 17 35 28 44
47 12 32 28 44
48 17 34 28 44
49 11 32 28 35
50 16 34 28 35
51 11 32 28 34
52 8 30 29 36
53 9 30 29 44
54 20 36 29 44
55 9 29 30 45
56 8 29 30 37
57 20 37 30 45
58 19 39 31 45
59 18 38 31 39
60 18 39 31 40
61 19 38 31 45
62 19 40 31 45
63 18 38 31 40
64 6 28 32 41
65 6 28 32 42
66 6 28 32 43
67 14 41 32 42
68 14 41 32 43
69 14 42 32 43
70 3 27 44 28
71 4 27 44 29
72 7 28 44 29
73 4 27 45 30
74 5 27 45 31
75 10 30 45 31
76 2 47 46 52
77 2 47 46 51
78 22 51 46 52
79 1 46 47 48
80 1 46 47 49
81 1 46 47 50
82 13 48 47 49
83 13 48 47 50
84 13 49 47 50

 Dihedrals

1 24 7 1 2 3
2 24 7 1 2 4
3 24 7 1 2 5
4 24 6 1 2 3
5 24 6 1 2 4
6 24 6 1 2 5
7 7 14 8 26 11
8 8 14 8 26 12
9 20 25 8 26 11
10 21 25 8 26 12
11 6 14 8 25 9
12 7 14 8 25 10
13 19 26 8 25 9
14 20 26 8 25 10
15 9 15 9 13 24
16 9 15 9 13 22
17 9 15 9 13 23
18 9 16 9 13 24
19 9 16 9 13 22
20 9 16 9 13 23
21 22 25 9 13 24
22 22 25 9 13 22
23 22 25 9 13 23
24 4 13 9 25 8
25 5 13 9 25 10
26 10 15 9 25 8
27 11 15 9 25 10
28 10 16 9 25 8
29 11 16 9 25 10
30 16 17 10 25 8
31 17 17 10 25 9
32 1 11 10 25 8
33 2 11 10 25 9
34 15 17 10 11 26
35 14 17 10 11 18
36 23 25 10 11 26
37 15 25 10 11 18
38 1 10 11 26 8
39 3 10 11 26 12
40 16 18 11 26 8
41 18 18 11 26 12
42 12 19 12 26 8
43 13 19 12 26 11
44 12 20 12 26 8
45 13 20 12 26 11
46 12 21 12 26 8
47 13 21 12 26 11
48 7 33 27 45 30
49 8 33 27 45 31
50 20 44 27 45 30
51 21 44 27 45 31
52 6 33 27 44 28
53 7 33 27 44 29
54 19 45 27 44 28
55 20 45 27 44 29
56 10 35 28 44 27
57 11 35 28 44 29
58 4 32 28 44 27
59 5 32 28 44 29
60 10 34 28 44 27
61 11 34 28 44 29
62 22 44 28 32 41
63 22 44 28 32 42
64 22 44 28 32 43
65 9 35 28 32 41
66 9 35 28 32 42
67 9 35 28 32 43
68 9 34 28 32 41
69 9 34 28 32 42
70 9 34 28 32 43
71 15 36 29 30 45
72 14 36 29 30 37
73 23 44 29 30 45
74 15 44 29 30 37
75 1 30 29 44 27
76 2 30 29 44 28
77 16 36 29 44 27
78 17 36 29 44 28
79 1 29 30 45 27
80 3 29 30 45 31
81 16 37 30 45 27
82 18 37 30 45 31
83 12 39 31 45 27
84 13 39 31 45 30
85 12 38 31 45 27
86 13 38 31 45 30
87 12 40 31 45 27
88 13 40 31 45 30
89 24 52 46 47 48
90 24 52 46 47 49
91 24 52 46 47 50
92 24 51 46 47 48
93 24 51 46 47 49
94 24 51 46 47 50

 Impropers

1 4 25 8 26 14
2 3 26 11 18 10
3 2 8 11 26 12
4 3 45 30 37 29
5 2 27 30 45 31
6 1 51 46 52 47

