LAMMPS data file. CGCMM style. atom_style full generated by VMD/TopoTools v1.7 on Thu Mar 04 18:17:16 AEDT 2021

 52 atoms
 50 bonds
 84 angles
 94 dihedrals
 5 impropers
 13 atom types
 14 bond types
 22 angle types
 24 dihedral types
 3 improper types
-9.294  4.810  xlo xhi
-5.614  2.300  ylo yhi
-7.110  7.304  zlo zhi

Pair Coeffs

1      0.10493      3.750    # CO2
2      0.06595      3.500    # CTA
3      0.06995      3.550    # CR
4      0.06595      3.500    # C1
5      0.06995      3.550    # CW
6      0.06595      3.500    # C1A
7      0.06595      3.500    # CE
8      0.02998      2.500    # HC
9      0.02998      2.420    # HCR
10     0.02998      2.500    # H1
11     0.02998      2.420    # HCW
12     0.16989      3.250    # NA
13     0.20986      2.960    # O2

Bond Coeffs

1    316.82908      1.522    # CO2-CTA
2    655.51256      1.250    # CO2-O2
3    339.75829      1.090    # CTA-HC
4    339.75829      1.080    # CR-HCR
5    476.73641      1.315    # CR-NA
6    267.74625      1.529    # C1-CE
7    339.75829      1.090    # C1-H1
8    336.77271      1.466    # C1-NA
9    519.72867      1.341    # CW-CW
10   339.75829      1.080    # CW-HCW
11   426.81762      1.378    # CW-NA
12   339.75829      1.090    # C1A-H1
13   336.77271      1.466    # C1A-NA
14   339.75829      1.090    # CE-HC

Angle Coeffs

1     35.69552    109.500    # CO2-CTA-HC
2     69.95796    117.000    # CTA-CO2-O2
3     69.95796    126.400    # CR-NA-C1
4     69.95796    108.000    # CR-NA-CW
5     69.95796    126.400    # CR-NA-C1A
6     37.47492    110.700    # C1-CE-HC
7     69.95796    125.600    # C1-NA-CW
8     34.97898    130.900    # CW-CW-HCW
9     69.95796    107.100    # CW-CW-NA
10    69.95796    125.600    # CW-NA-C1A
11    37.47492    110.700    # CE-C1-H1
12    58.31423    112.700    # CE-C1-NA
13    32.97268    107.800    # HC-CTA-HC
14    32.97268    107.800    # HC-CE-HC
15    34.97898    125.100    # HCR-CR-NA
16    32.97268    107.800    # H1-C1-H1
17    37.47492    110.700    # H1-C1-NA
18    32.97268    107.800    # H1-C1A-H1
19    37.47492    110.700    # H1-C1A-NA
20    34.97898    122.000    # HCW-CW-NA
21    69.95796    109.800    # NA-CR-NA
22    79.94172    126.000    # O2-CO2-O2

Dihedral Coeffs

1      0.00000    2.99799    0.00000    0.00000   # CW-CW-NA-CR
2      0.00000    2.99799    0.00000    0.00000   # CW-CW-NA-C1
3      0.00000    2.99799    0.00000    0.00000   # CW-CW-NA-C1A
4     -1.25850    0.00000    0.00000    0.00000   # CE-C1-NA-CR
5     -1.70858    1.45849    0.18962    0.00000   # CE-C1-NA-CW
6      0.00000    4.64794    0.00000    0.00000   # HCR-CR-NA-C1
7      0.00000    4.64794    0.00000    0.00000   # HCR-CR-NA-CW
8      0.00000    4.64794    0.00000    0.00000   # HCR-CR-NA-C1A
9      0.00000    0.00000    0.29980    0.00000   # H1-C1-CE-HC
10     0.00000    0.00000    0.00000    0.00000   # H1-C1-NA-CR
11     0.00000    0.00000    0.12396    0.00000   # H1-C1-NA-CW
12     0.00000    0.00000    0.00000    0.00000   # H1-C1A-NA-CR
13     0.00000    0.00000    0.12396    0.00000   # H1-C1A-NA-CW
14     0.00000   10.74329    0.00000    0.00000   # HCW-CW-CW-HCW
15     0.00000   10.74329    0.00000    0.00000   # HCW-CW-CW-NA
16     0.00000    2.99799    0.00000    0.00000   # HCW-CW-NA-CR
17     0.00000    2.99799    0.00000    0.00000   # HCW-CW-NA-C1
18     0.00000    2.99799    0.00000    0.00000   # HCW-CW-NA-C1A
19     0.00000    4.64794    0.00000    0.00000   # NA-CR-NA-C1
20     0.00000    4.64794    0.00000    0.00000   # NA-CR-NA-CW
21     0.00000    4.64794    0.00000    0.00000   # NA-CR-NA-C1A
22     0.00000    0.00000    0.08766    0.00000   # NA-C1-CE-HC
23     0.00000   10.74329    0.00000    0.00000   # NA-CW-CW-NA
24     0.00000    0.00000    0.00000    0.00000   # O2-CO2-CTA-HC

Improper Coeffs

1     10.49298   -1   2   # CTA-O2-CO2-O2
2      0.99933   -1   2   # CR-CW-NA-C1A
3      1.09926   -1   2   # CW-HCW-CW-NA

 Masses

 1 12.010700 # CO2
 2 12.010700 # CTA
 3 12.010700 # CR
 4 12.010700 # C1
 5 12.010700 # CW
 6 12.010700 # C1A
 7 12.010700 # CE
 8 1.007940 # HC
 9 1.007940 # HCR
 10 1.007940 # H1
 11 1.007940 # HCW
 12 14.006700 # NA
 13 15.999400 # O2

 Atoms # full

1    1   1    0.700    0.068380    0.104630   -0.084580   # CO2
2    1   2   -0.280   -0.016320   -0.658670    1.196420   # CTA
3    1   8    0.060   -0.059220   -0.106470    2.135220   # HC
4    1   8    0.060   -0.998520   -1.127580    1.136120   # HC
5    1   8    0.060    0.682280   -1.495350    1.187320   # HC
6    1   13  -0.800    0.549980   -0.575370   -0.994680   # O2
7    1   13  -0.800   -0.565420    1.163230   -0.120880   # O2
8    2   3   -0.110   -2.448120   -1.893200   -3.029180   # CR
9    2   4   -0.170   -3.273020   -2.224500   -0.731780   # C1
10   2   5   -0.130   -2.080020   -3.806770   -2.295880   # CW
11   2   5   -0.130   -1.814220   -3.784440   -3.585980   # CW
12   2   6   -0.170   -1.842120   -2.025510   -5.373980   # C1A
13   2   7   -0.050   -4.101720   -0.974250   -0.696980   # CE
14   2   9    0.210   -2.758220   -0.860070   -2.975480   # HCR
15   2   10   0.130   -3.895420   -3.048860   -0.383780   # H1
16   2   10   0.130   -2.433620   -2.170900   -0.038380   # H1
17   2   11   0.210   -1.901620   -4.592490   -1.576780   # HCW
18   2   11   0.210   -1.430120   -4.613620   -4.161680   # HCW
19   2   10   0.130   -0.927320   -2.295230   -5.901680   # H1
20   2   10   0.130   -2.591320   -2.318320   -6.109580   # H1
21   2   10   0.130   -2.005120   -0.948970   -5.425080   # H1
22   2   8    0.060   -4.838020   -1.111870   -1.488780   # HC
23   2   8    0.060   -4.726120   -1.037270    0.194220   # HC
24   2   8    0.060   -3.650420   -0.005570   -0.911780   # HC
25   2   12   0.150   -2.759320   -2.655640   -2.046380   # NA
26   2   12   0.150   -1.993520   -2.552850   -4.043980   # NA
27   3   3   -0.110   -5.111220   -2.721270    3.033020   # CR
28   3   4   -0.170   -2.791020   -2.491090    3.476420   # C1
29   3   5   -0.130   -4.514120   -3.736420    4.847220   # CW
30   3   5   -0.130   -5.828920   -3.984660    4.668020   # CW
31   3   6   -0.170   -7.485620   -3.437440    2.730020   # C1A
32   3   7   -0.050   -2.415820   -1.145940    4.154520   # CE
33   3   9    0.210   -5.039920   -2.264880    2.056820   # HCR
34   3   10   0.130   -2.130620   -3.249440    3.897020   # H1
35   3   10   0.130   -2.672920   -2.465780    2.393120   # H1
36   3   11   0.210   -3.821420   -4.098620    5.592420   # HCW
37   3   11   0.210   -6.560820   -4.533710    5.241920   # HCW
38   3   10   0.130   -8.294220   -3.718910    3.404620   # H1
39   3   10   0.130   -7.369920   -4.156570    1.919120   # H1
40   3   10   0.130   -7.724220   -2.495960    2.235320   # H1
41   3   8    0.060   -3.277920   -0.480770    4.106020   # HC
42   3   8    0.060   -1.563220   -0.720470    3.625220   # HC
43   3   8    0.060   -2.185320   -1.322450    5.205120   # HC
44   3   12   0.150   -4.147720   -2.908420    3.823520   # NA
45   3   12   0.150   -6.134120   -3.393120    3.444420   # NA
46   4   1    0.700    2.912170    0.734630    5.107820   # CO2
47   4   2   -0.280    1.718950   -0.142870    5.363320   # CTA
48   4   8    0.060    1.635070   -0.928360    4.612320   # HC
49   4   8    0.060    0.800070    0.438830    5.437220   # HC
50   4   8    0.060    1.846760   -0.678770    6.303820   # HC
51   4   13  -0.800    3.809780    0.868430    5.945120   # O2
52   4   13  -0.800    2.854200    1.300030    3.986020   # O2

 Bonds

1 1 1 2
2 2 1 7
3 2 1 6
4 3 2 5
5 3 2 3
6 3 2 4
7 4 8 14
8 5 8 26
9 5 8 25
10 6 9 13
11 7 9 16
12 8 9 25
13 7 9 15
14 9 10 11
15 10 10 17
16 11 10 25
17 10 11 18
18 11 11 26
19 12 12 19
20 12 12 21
21 13 12 26
22 12 12 20
23 14 13 24
24 14 13 23
25 14 13 22
26 5 27 45
27 5 27 44
28 4 27 33
29 7 28 35
30 6 28 32
31 7 28 34
32 8 28 44
33 11 29 44
34 9 29 30
35 10 29 36
36 11 30 45
37 10 30 37
38 12 31 39
39 12 31 38
40 13 31 45
41 12 31 40
42 14 32 42
43 14 32 43
44 14 32 41
45 2 46 52
46 2 46 51
47 1 46 47
48 3 47 49
49 3 47 50
50 3 47 48

 Angles

1 2 2 1 7
2 2 2 1 6
3 22 6 1 7
4 1 1 2 5
5 1 1 2 3
6 1 1 2 4
7 13 3 2 5
8 13 4 2 5
9 13 3 2 4
10 15 14 8 26
11 15 14 8 25
12 21 25 8 26
13 11 13 9 16
14 12 13 9 25
15 11 13 9 15
16 17 16 9 25
17 16 15 9 16
18 17 15 9 25
19 8 11 10 17
20 9 11 10 25
21 20 17 10 25
22 8 10 11 18
23 9 10 11 26
24 20 18 11 26
25 18 19 12 21
26 19 19 12 26
27 18 19 12 20
28 19 21 12 26
29 18 20 12 21
30 19 20 12 26
31 6 9 13 24
32 6 9 13 23
33 6 9 13 22
34 14 23 13 24
35 14 22 13 24
36 14 22 13 23
37 3 8 25 9
38 4 8 25 10
39 7 9 25 10
40 4 8 26 11
41 5 8 26 12
42 10 11 26 12
43 21 44 27 45
44 15 33 27 45
45 15 33 27 44
46 11 32 28 35
47 16 34 28 35
48 17 35 28 44
49 11 32 28 34
50 12 32 28 44
51 17 34 28 44
52 9 30 29 44
53 20 36 29 44
54 8 30 29 36
55 9 29 30 45
56 8 29 30 37
57 20 37 30 45
58 18 38 31 39
59 19 39 31 45
60 18 39 31 40
61 19 38 31 45
62 18 38 31 40
63 19 40 31 45
64 6 28 32 42
65 6 28 32 43
66 6 28 32 41
67 14 42 32 43
68 14 41 32 42
69 14 41 32 43
70 3 27 44 28
71 4 27 44 29
72 7 28 44 29
73 4 27 45 30
74 5 27 45 31
75 10 30 45 31
76 22 51 46 52
77 2 47 46 52
78 2 47 46 51
79 1 46 47 49
80 1 46 47 50
81 1 46 47 48
82 13 49 47 50
83 13 48 47 49
84 13 48 47 50

 Dihedrals

1 24 7 1 2 5
2 24 7 1 2 3
3 24 7 1 2 4
4 24 6 1 2 5
5 24 6 1 2 3
6 24 6 1 2 4
7 7 14 8 26 11
8 8 14 8 26 12
9 20 25 8 26 11
10 21 25 8 26 12
11 6 14 8 25 9
12 7 14 8 25 10
13 19 26 8 25 9
14 20 26 8 25 10
15 9 16 9 13 24
16 9 16 9 13 23
17 9 16 9 13 22
18 22 25 9 13 24
19 22 25 9 13 23
20 22 25 9 13 22
21 9 15 9 13 24
22 9 15 9 13 23
23 9 15 9 13 22
24 4 13 9 25 8
25 5 13 9 25 10
26 10 16 9 25 8
27 11 16 9 25 10
28 10 15 9 25 8
29 11 15 9 25 10
30 14 17 10 11 18
31 15 17 10 11 26
32 15 25 10 11 18
33 23 25 10 11 26
34 1 11 10 25 8
35 2 11 10 25 9
36 16 17 10 25 8
37 17 17 10 25 9
38 1 10 11 26 8
39 3 10 11 26 12
40 16 18 11 26 8
41 18 18 11 26 12
42 12 19 12 26 8
43 13 19 12 26 11
44 12 21 12 26 8
45 13 21 12 26 11
46 12 20 12 26 8
47 13 20 12 26 11
48 20 44 27 45 30
49 21 44 27 45 31
50 7 33 27 45 30
51 8 33 27 45 31
52 19 45 27 44 28
53 20 45 27 44 29
54 6 33 27 44 28
55 7 33 27 44 29
56 9 35 28 32 42
57 9 35 28 32 43
58 9 35 28 32 41
59 9 34 28 32 42
60 9 34 28 32 43
61 9 34 28 32 41
62 22 44 28 32 42
63 22 44 28 32 43
64 22 44 28 32 41
65 10 35 28 44 27
66 11 35 28 44 29
67 4 32 28 44 27
68 5 32 28 44 29
69 10 34 28 44 27
70 11 34 28 44 29
71 1 30 29 44 27
72 2 30 29 44 28
73 16 36 29 44 27
74 17 36 29 44 28
75 23 44 29 30 45
76 15 44 29 30 37
77 15 36 29 30 45
78 14 36 29 30 37
79 1 29 30 45 27
80 3 29 30 45 31
81 16 37 30 45 27
82 18 37 30 45 31
83 12 39 31 45 27
84 13 39 31 45 30
85 12 38 31 45 27
86 13 38 31 45 30
87 12 40 31 45 27
88 13 40 31 45 30
89 24 52 46 47 49
90 24 52 46 47 50
91 24 52 46 47 48
92 24 51 46 47 49
93 24 51 46 47 50
94 24 51 46 47 48

 Impropers

1 2 8 11 26 12
2 3 44 29 36 30
3 3 45 30 37 29
4 2 27 30 45 31
5 1 51 46 52 47

