LAMMPS data file. CGCMM style. atom_style full generated by VMD/TopoTools v1.7 on Thu Mar 04 18:17:16 AEDT 2021

76 atoms
74 bonds
84 angles
94 dihedrals
5 impropers
22 atom types
23 bond types
22 angle types
24 dihedral types
3 improper types
-30.000  30.000  xlo xhi
-30.000  30.000  ylo yhi
-30.000  30.000 zlo zhi

Masses

   1   11.611  # CO2 DC
   2   11.611  # CTA DC
   3   11.611  # CR DC
   4   11.611  # C1 DC
   5   11.611  # CW DC
   6   11.611  # C1A DC
   7   11.611  # CE DC
   8    1.008  # HC
   9    1.008  # HCR
  10    1.008  # H1
  11    1.008  # HCW
  12   13.607  # NA DC
  13   15.599  # O2 DC
  14    0.400  # CO2 DP
  15    0.400  # CTA DP
  16    0.400  # CR DP
  17    0.400  # C1 DP
  18    0.400  # CW DP
  19    0.400  # C1A DP
  20    0.400  # CE DP
  21    0.400  # NA DP
  22    0.400  # O2 DP

Bond Coeffs

1    316.82908      1.522    # CO2-CTA
2    655.51256      1.250    # CO2-O2
3    339.75829      1.090    # CTA-HC
4    339.75829      1.080    # CR-HCR
5    476.73641      1.315    # CR-NA
6    267.74625      1.529    # C1-CE
7    339.75829      1.090    # C1-H1
8    336.77271      1.466    # C1-NA
9    519.72867      1.341    # CW-CW
10   339.75829      1.080    # CW-HCW
11   426.81762      1.378    # CW-NA
12   339.75829      1.090    # C1A-H1
13   336.77271      1.466    # C1A-NA
14   339.75829      1.090    # CE-HC
  15   500.000000     0.000000  # CO2 DC-DP
  16   500.000000     0.000000  # CTA DC-DP
  17   500.000000     0.000000  # CR DC-DP
  18   500.000000     0.000000  # C1 DC-DP
  19   500.000000     0.000000  # CW DC-DP
  20   500.000000     0.000000  # C1A DC-DP
  21   500.000000     0.000000  # CE DC-DP
  22   500.000000     0.000000  # NA DC-DP
  23   500.000000     0.000000  # O2 DC-DP

Angle Coeffs

1     35.69552    109.500    # CO2-CTA-HC
2     69.95796    117.000    # CTA-CO2-O2
3     69.95796    126.400    # CR-NA-C1
4     69.95796    108.000    # CR-NA-CW
5     69.95796    126.400    # CR-NA-C1A
6     37.47492    110.700    # C1-CE-HC
7     69.95796    125.600    # C1-NA-CW
8     34.97898    130.900    # CW-CW-HCW
9     69.95796    107.100    # CW-CW-NA
10    69.95796    125.600    # CW-NA-C1A
11    37.47492    110.700    # CE-C1-H1
12    58.31423    112.700    # CE-C1-NA
13    32.97268    107.800    # HC-CTA-HC
14    32.97268    107.800    # HC-CE-HC
15    34.97898    125.100    # HCR-CR-NA
16    32.97268    107.800    # H1-C1-H1
17    37.47492    110.700    # H1-C1-NA
18    32.97268    107.800    # H1-C1A-H1
19    37.47492    110.700    # H1-C1A-NA
20    34.97898    122.000    # HCW-CW-NA
21    69.95796    109.800    # NA-CR-NA
22    79.94172    126.000    # O2-CO2-O2

Dihedral Coeffs

1      0.00000    2.99799    0.00000    0.00000   # CW-CW-NA-CR
2      0.00000    2.99799    0.00000    0.00000   # CW-CW-NA-C1
3      0.00000    2.99799    0.00000    0.00000   # CW-CW-NA-C1A
4     -1.25850    0.00000    0.00000    0.00000   # CE-C1-NA-CR
5     -1.70858    1.45849    0.18962    0.00000   # CE-C1-NA-CW
6      0.00000    4.64794    0.00000    0.00000   # HCR-CR-NA-C1
7      0.00000    4.64794    0.00000    0.00000   # HCR-CR-NA-CW
8      0.00000    4.64794    0.00000    0.00000   # HCR-CR-NA-C1A
9      0.00000    0.00000    0.29980    0.00000   # H1-C1-CE-HC
10     0.00000    0.00000    0.00000    0.00000   # H1-C1-NA-CR
11     0.00000    0.00000    0.12396    0.00000   # H1-C1-NA-CW
12     0.00000    0.00000    0.00000    0.00000   # H1-C1A-NA-CR
13     0.00000    0.00000    0.12396    0.00000   # H1-C1A-NA-CW
14     0.00000   10.74329    0.00000    0.00000   # HCW-CW-CW-HCW
15     0.00000   10.74329    0.00000    0.00000   # HCW-CW-CW-NA
16     0.00000    2.99799    0.00000    0.00000   # HCW-CW-NA-CR
17     0.00000    2.99799    0.00000    0.00000   # HCW-CW-NA-C1
18     0.00000    2.99799    0.00000    0.00000   # HCW-CW-NA-C1A
19     0.00000    4.64794    0.00000    0.00000   # NA-CR-NA-C1
20     0.00000    4.64794    0.00000    0.00000   # NA-CR-NA-CW
21     0.00000    4.64794    0.00000    0.00000   # NA-CR-NA-C1A
22     0.00000    0.00000    0.08766    0.00000   # NA-C1-CE-HC
23     0.00000   10.74329    0.00000    0.00000   # NA-CW-CW-NA
24     0.00000    0.00000    0.00000    0.00000   # O2-CO2-CTA-HC

Improper Coeffs

1     10.49298   -1   2   # CTA-O2-CO2-O2
2      0.99933   -1   2   # CR-CW-NA-C1A
3      1.09926   -1   2   # CW-HCW-CW-NA

Atoms

      1       1    1   2.7771  6.838000e-02  1.046300e-01 -8.458000e-02  # CO2 DC
      2       1    2   2.1655 -1.632000e-02 -6.586700e-01  1.196420e+00  # CTA DC
      3       1    8   0.0600 -5.922000e-02 -1.064700e-01  2.135220e+00  # HC
      4       1    8   0.0600 -9.985200e-01 -1.127580e+00  1.136120e+00  # HC
      5       1    8   0.0600  6.822800e-01 -1.495350e+00  1.187320e+00  # HC
      6       1   13   1.0565  5.499800e-01 -5.753700e-01 -9.946800e-01  # O2 DC
      7       1   13   1.0565 -5.654200e-01  1.163230e+00 -1.208800e-01  # O2 DC
      8       2    3   1.9765 -2.448120e+00 -1.893200e+00 -3.029180e+00  # CR DC
      9       2    4   2.0677 -3.273020e+00 -2.224500e+00 -7.317800e-01  # C1 DC
     10       2    5   1.9565 -2.080020e+00 -3.806770e+00 -2.295880e+00  # CW DC
     11       2    5   1.9565 -1.814220e+00 -3.784440e+00 -3.585980e+00  # CW DC
     12       2    6   2.2755 -1.842120e+00 -2.025510e+00 -5.373980e+00  # C1A DC
     13       2    7   2.3955 -4.101720e+00 -9.742500e-01 -6.969800e-01  # CE DC
     14       2    9   0.2100 -2.758220e+00 -8.600700e-01 -2.975480e+00  # HCR
     15       2   10   0.1300 -3.895420e+00 -3.048860e+00 -3.837800e-01  # H1
     16       2   10   0.1300 -2.433620e+00 -2.170900e+00 -3.838000e-02  # H1
     17       2   11   0.2100 -1.901620e+00 -4.592490e+00 -1.576780e+00  # HCW
     18       2   11   0.2100 -1.430120e+00 -4.613620e+00 -4.161680e+00  # HCW
     19       2   10   0.1300 -9.273200e-01 -2.295230e+00 -5.901680e+00  # H1
     20       2   10   0.1300 -2.591320e+00 -2.318320e+00 -6.109580e+00  # H1
     21       2   10   0.1300 -2.005120e+00 -9.489700e-01 -5.425080e+00  # H1
     22       2    8   0.0600 -4.838020e+00 -1.111870e+00 -1.488780e+00  # HC
     23       2    8   0.0600 -4.726120e+00 -1.037270e+00  1.942200e-01  # HC
     24       2    8   0.0600 -3.650420e+00 -5.570000e-03 -9.117800e-01  # HC
     25       2   12   2.0577 -2.759320e+00 -2.655640e+00 -2.046380e+00  # NA DC
     26       2   12   2.0577 -1.993520e+00 -2.552850e+00 -4.043980e+00  # NA DC
     27       3    3   1.9765 -5.111220e+00 -2.721270e+00  3.033020e+00  # CR DC
     28       3    4   2.0677 -2.791020e+00 -2.491090e+00  3.476420e+00  # C1 DC
     29       3    5   1.9565 -4.514120e+00 -3.736420e+00  4.847220e+00  # CW DC
     30       3    5   1.9565 -5.828920e+00 -3.984660e+00  4.668020e+00  # CW DC
     31       3    6   2.2755 -7.485620e+00 -3.437440e+00  2.730020e+00  # C1A DC
     32       3    7   2.3955 -2.415820e+00 -1.145940e+00  4.154520e+00  # CE DC
     33       3    9   0.2100 -5.039920e+00 -2.264880e+00  2.056820e+00  # HCR
     34       3   10   0.1300 -2.130620e+00 -3.249440e+00  3.897020e+00  # H1
     35       3   10   0.1300 -2.672920e+00 -2.465780e+00  2.393120e+00  # H1
     36       3   11   0.2100 -3.821420e+00 -4.098620e+00  5.592420e+00  # HCW
     37       3   11   0.2100 -6.560820e+00 -4.533710e+00  5.241920e+00  # HCW
     38       3   10   0.1300 -8.294220e+00 -3.718910e+00  3.404620e+00  # H1
     39       3   10   0.1300 -7.369920e+00 -4.156570e+00  1.919120e+00  # H1
     40       3   10   0.1300 -7.724220e+00 -2.495960e+00  2.235320e+00  # H1
     41       3    8   0.0600 -3.277920e+00 -4.807700e-01  4.106020e+00  # HC
     42       3    8   0.0600 -1.563220e+00 -7.204700e-01  3.625220e+00  # HC
     43       3    8   0.0600 -2.185320e+00 -1.322450e+00  5.205120e+00  # HC
     44       3   12   2.0577 -4.147720e+00 -2.908420e+00  3.823520e+00  # NA DC
     45       3   12   2.0577 -6.134120e+00 -3.393120e+00  3.444420e+00  # NA DC
     46       4    1   2.7771  2.912170e+00  7.346300e-01  5.107820e+00  # CO2 DC
     47       4    2   2.1655  1.718950e+00 -1.428700e-01  5.363320e+00  # CTA DC
     48       4    8   0.0600  1.635070e+00 -9.283600e-01  4.612320e+00  # HC
     49       4    8   0.0600  8.000700e-01  4.388300e-01  5.437220e+00  # HC
     50       4    8   0.0600  1.846760e+00 -6.787700e-01  6.303820e+00  # HC
     51       4   13   1.0565  3.809780e+00  8.684300e-01  5.945120e+00  # O2 DC
     52       4   13   1.0565  2.854200e+00  1.300030e+00  3.986020e+00  # O2 DC
     53       1   14  -2.0771  2.361636e-02  6.334867e-02 -9.385582e-02  # CO2 DP
     54       1   15  -2.4455 -5.554998e-02 -6.185501e-01  1.150235e+00  # CTA DP
     55       1   22  -1.8565  5.536002e-01 -5.921502e-01 -9.594713e-01  # O2 DP
     56       1   22  -1.8565 -5.994538e-01  1.146952e+00 -1.375004e-01  # O2 DP
     57       2   16  -2.0865 -2.473604e+00 -1.943033e+00 -3.035552e+00  # CR DP
     58       2   17  -2.2377 -3.314259e+00 -2.214740e+00 -7.747923e-01  # C1 DP
     59       2   18  -2.0865 -2.098474e+00 -3.811938e+00 -2.255340e+00  # CW DP
     60       2   18  -2.0865 -1.854944e+00 -3.820222e+00 -3.556973e+00  # CW DP
     61       2   19  -2.4455 -1.889996e+00 -1.984395e+00 -5.366639e+00  # C1A DP
     62       2   20  -2.4455 -4.125188e+00 -9.404662e-01 -6.701005e-01  # CE DP
     63       2   21  -1.9077 -2.774974e+00 -2.625490e+00 -2.075694e+00  # NA DP
     64       2   21  -1.9077 -1.982630e+00 -2.550143e+00 -4.013046e+00  # NA DP
     65       3   16  -2.0865 -5.129694e+00 -2.731446e+00  3.059948e+00  # CR DP
     66       3   17  -2.2377 -2.789745e+00 -2.472606e+00  3.490255e+00  # C1 DP
     67       3   18  -2.0865 -4.497454e+00 -3.697410e+00  4.845834e+00  # CW DP
     68       3   18  -2.0865 -5.812073e+00 -3.997208e+00  4.621204e+00  # CW DP
     69       3   19  -2.4455 -7.460203e+00 -3.469294e+00  2.762039e+00  # C1A DP
     70       3   20  -2.4455 -2.374455e+00 -1.130133e+00  4.121533e+00  # CE DP
     71       3   21  -1.9077 -4.164028e+00 -2.919301e+00  3.780849e+00  # NA DP
     72       3   21  -1.9077 -6.138443e+00 -3.385803e+00  3.428031e+00  # NA DP
     73       4   14  -2.0771  2.881076e+00  6.934457e-01  5.120652e+00  # CO2 DP
     74       4   15  -2.4455  1.670233e+00 -1.576786e-01  5.336233e+00  # CTA DP
     75       4   22  -1.8565  3.812980e+00  8.907963e-01  5.986035e+00  # O2 DP
     76       4   22  -1.8565  2.868080e+00  1.349209e+00  4.032426e+00  # O2 DP

Bonds

1 1 1 2
2 2 1 7
3 2 1 6
4 3 2 5
5 3 2 3
6 3 2 4
7 4 8 14
8 5 8 26
9 5 8 25
10 6 9 13
11 7 9 16
12 8 9 25
13 7 9 15
14 9 10 11
15 10 10 17
16 11 10 25
17 10 11 18
18 11 11 26
19 12 12 19
20 12 12 21
21 13 12 26
22 12 12 20
23 14 13 24
24 14 13 23
25 14 13 22
26 5 27 45
27 5 27 44
28 4 27 33
29 7 28 35
30 6 28 32
31 7 28 34
32 8 28 44
33 11 29 44
34 9 29 30
35 10 29 36
36 11 30 45
37 10 30 37
38 12 31 39
39 12 31 38
40 13 31 45
41 12 31 40
42 14 32 42
43 14 32 43
44 14 32 41
45 2 46 52
46 2 46 51
47 1 46 47
48 3 47 49
49 3 47 50
50 3 47 48
     51   15       1      53  # CO2 DC-DP
     52   16       2      54  # CTA DC-DP
     53   23       6      55  # O2 DC-DP
     54   23       7      56  # O2 DC-DP
     55   17       8      57  # CR DC-DP
     56   18       9      58  # C1 DC-DP
     57   19      10      59  # CW DC-DP
     58   19      11      60  # CW DC-DP
     59   20      12      61  # C1A DC-DP
     60   21      13      62  # CE DC-DP
     61   22      25      63  # NA DC-DP
     62   22      26      64  # NA DC-DP
     63   17      27      65  # CR DC-DP
     64   18      28      66  # C1 DC-DP
     65   19      29      67  # CW DC-DP
     66   19      30      68  # CW DC-DP
     67   20      31      69  # C1A DC-DP
     68   21      32      70  # CE DC-DP
     69   22      44      71  # NA DC-DP
     70   22      45      72  # NA DC-DP
     71   15      46      73  # CO2 DC-DP
     72   16      47      74  # CTA DC-DP
     73   23      51      75  # O2 DC-DP
     74   23      52      76  # O2 DC-DP

Angles

1 2 2 1 7
2 2 2 1 6
3 22 6 1 7
4 1 1 2 5
5 1 1 2 3
6 1 1 2 4
7 13 3 2 5
8 13 4 2 5
9 13 3 2 4
10 15 14 8 26
11 15 14 8 25
12 21 25 8 26
13 11 13 9 16
14 12 13 9 25
15 11 13 9 15
16 17 16 9 25
17 16 15 9 16
18 17 15 9 25
19 8 11 10 17
20 9 11 10 25
21 20 17 10 25
22 8 10 11 18
23 9 10 11 26
24 20 18 11 26
25 18 19 12 21
26 19 19 12 26
27 18 19 12 20
28 19 21 12 26
29 18 20 12 21
30 19 20 12 26
31 6 9 13 24
32 6 9 13 23
33 6 9 13 22
34 14 23 13 24
35 14 22 13 24
36 14 22 13 23
37 3 8 25 9
38 4 8 25 10
39 7 9 25 10
40 4 8 26 11
41 5 8 26 12
42 10 11 26 12
43 21 44 27 45
44 15 33 27 45
45 15 33 27 44
46 11 32 28 35
47 16 34 28 35
48 17 35 28 44
49 11 32 28 34
50 12 32 28 44
51 17 34 28 44
52 9 30 29 44
53 20 36 29 44
54 8 30 29 36
55 9 29 30 45
56 8 29 30 37
57 20 37 30 45
58 18 38 31 39
59 19 39 31 45
60 18 39 31 40
61 19 38 31 45
62 18 38 31 40
63 19 40 31 45
64 6 28 32 42
65 6 28 32 43
66 6 28 32 41
67 14 42 32 43
68 14 41 32 42
69 14 41 32 43
70 3 27 44 28
71 4 27 44 29
72 7 28 44 29
73 4 27 45 30
74 5 27 45 31
75 10 30 45 31
76 22 51 46 52
77 2 47 46 52
78 2 47 46 51
79 1 46 47 49
80 1 46 47 50
81 1 46 47 48
82 13 49 47 50
83 13 48 47 49
84 13 48 47 50

Dihedrals

1 24 7 1 2 5
2 24 7 1 2 3
3 24 7 1 2 4
4 24 6 1 2 5
5 24 6 1 2 3
6 24 6 1 2 4
7 7 14 8 26 11
8 8 14 8 26 12
9 20 25 8 26 11
10 21 25 8 26 12
11 6 14 8 25 9
12 7 14 8 25 10
13 19 26 8 25 9
14 20 26 8 25 10
15 9 16 9 13 24
16 9 16 9 13 23
17 9 16 9 13 22
18 22 25 9 13 24
19 22 25 9 13 23
20 22 25 9 13 22
21 9 15 9 13 24
22 9 15 9 13 23
23 9 15 9 13 22
24 4 13 9 25 8
25 5 13 9 25 10
26 10 16 9 25 8
27 11 16 9 25 10
28 10 15 9 25 8
29 11 15 9 25 10
30 14 17 10 11 18
31 15 17 10 11 26
32 15 25 10 11 18
33 23 25 10 11 26
34 1 11 10 25 8
35 2 11 10 25 9
36 16 17 10 25 8
37 17 17 10 25 9
38 1 10 11 26 8
39 3 10 11 26 12
40 16 18 11 26 8
41 18 18 11 26 12
42 12 19 12 26 8
43 13 19 12 26 11
44 12 21 12 26 8
45 13 21 12 26 11
46 12 20 12 26 8
47 13 20 12 26 11
48 20 44 27 45 30
49 21 44 27 45 31
50 7 33 27 45 30
51 8 33 27 45 31
52 19 45 27 44 28
53 20 45 27 44 29
54 6 33 27 44 28
55 7 33 27 44 29
56 9 35 28 32 42
57 9 35 28 32 43
58 9 35 28 32 41
59 9 34 28 32 42
60 9 34 28 32 43
61 9 34 28 32 41
62 22 44 28 32 42
63 22 44 28 32 43
64 22 44 28 32 41
65 10 35 28 44 27
66 11 35 28 44 29
67 4 32 28 44 27
68 5 32 28 44 29
69 10 34 28 44 27
70 11 34 28 44 29
71 1 30 29 44 27
72 2 30 29 44 28
73 16 36 29 44 27
74 17 36 29 44 28
75 23 44 29 30 45
76 15 44 29 30 37
77 15 36 29 30 45
78 14 36 29 30 37
79 1 29 30 45 27
80 3 29 30 45 31
81 16 37 30 45 27
82 18 37 30 45 31
83 12 39 31 45 27
84 13 39 31 45 30
85 12 38 31 45 27
86 13 38 31 45 30
87 12 40 31 45 27
88 13 40 31 45 30
89 24 52 46 47 49
90 24 52 46 47 50
91 24 52 46 47 48
92 24 51 46 47 49
93 24 51 46 47 50
94 24 51 46 47 48

Impropers

1 2 8 11 26 12
2 3 44 29 36 30
3 3 45 30 37 29
4 2 27 30 45 31
5 1 51 46 52 47
