LAMMPS data file. CGCMM style. atom_style full generated by VMD/TopoTools v1.7 on Thu Mar 04 18:17:15 AEDT 2021

 52 atoms
 50 bonds
 84 angles
 94 dihedrals
 5 impropers
 13 atom types
 14 bond types
 22 angle types
 24 dihedral types
 2 improper types
-7.112  8.575  xlo xhi
-7.106  2.540  ylo yhi
-6.484  5.663  zlo zhi

Pair Coeffs

1      0.10493      3.750    # CO2
2      0.06595      3.500    # CTA
3      0.06995      3.550    # CR
4      0.06595      3.500    # C1
5      0.06995      3.550    # CW
6      0.06595      3.500    # C1A
7      0.06595      3.500    # CE
8      0.02998      2.500    # HC
9      0.02998      2.420    # HCR
10     0.02998      2.500    # H1
11     0.02998      2.420    # HCW
12     0.16989      3.250    # NA
13     0.20986      2.960    # O2

Bond Coeffs

1    316.82908      1.522    # CO2-CTA
2    655.51256      1.250    # CO2-O2
3    339.75829      1.090    # CTA-HC
4    339.75829      1.080    # CR-HCR
5    476.73641      1.315    # CR-NA
6    267.74625      1.529    # C1-CE
7    339.75829      1.090    # C1-H1
8    336.77271      1.466    # C1-NA
9    519.72867      1.341    # CW-CW
10   339.75829      1.080    # CW-HCW
11   426.81762      1.378    # CW-NA
12   339.75829      1.090    # C1A-H1
13   336.77271      1.466    # C1A-NA
14   339.75829      1.090    # CE-HC

Angle Coeffs

1     35.69552    109.500    # CO2-CTA-HC
2     69.95796    117.000    # CTA-CO2-O2
3     69.95796    126.400    # CR-NA-C1
4     69.95796    108.000    # CR-NA-CW
5     69.95796    126.400    # CR-NA-C1A
6     37.47492    110.700    # C1-CE-HC
7     69.95796    125.600    # C1-NA-CW
8     34.97898    130.900    # CW-CW-HCW
9     69.95796    107.100    # CW-CW-NA
10    69.95796    125.600    # CW-NA-C1A
11    37.47492    110.700    # CE-C1-H1
12    58.31423    112.700    # CE-C1-NA
13    32.97268    107.800    # HC-CTA-HC
14    32.97268    107.800    # HC-CE-HC
15    34.97898    125.100    # HCR-CR-NA
16    32.97268    107.800    # H1-C1-H1
17    37.47492    110.700    # H1-C1-NA
18    32.97268    107.800    # H1-C1A-H1
19    37.47492    110.700    # H1-C1A-NA
20    34.97898    122.000    # HCW-CW-NA
21    69.95796    109.800    # NA-CR-NA
22    79.94172    126.000    # O2-CO2-O2

Dihedral Coeffs

1      0.00000    2.99799    0.00000    0.00000   # CW-CW-NA-CR
2      0.00000    2.99799    0.00000    0.00000   # CW-CW-NA-C1
3      0.00000    2.99799    0.00000    0.00000   # CW-CW-NA-C1A
4     -1.25850    0.00000    0.00000    0.00000   # CE-C1-NA-CR
5     -1.70858    1.45849    0.18962    0.00000   # CE-C1-NA-CW
6      0.00000    4.64794    0.00000    0.00000   # HCR-CR-NA-C1
7      0.00000    4.64794    0.00000    0.00000   # HCR-CR-NA-CW
8      0.00000    4.64794    0.00000    0.00000   # HCR-CR-NA-C1A
9      0.00000    0.00000    0.29980    0.00000   # H1-C1-CE-HC
10     0.00000    0.00000    0.00000    0.00000   # H1-C1-NA-CR
11     0.00000    0.00000    0.12396    0.00000   # H1-C1-NA-CW
12     0.00000    0.00000    0.00000    0.00000   # H1-C1A-NA-CR
13     0.00000    0.00000    0.12396    0.00000   # H1-C1A-NA-CW
14     0.00000   10.74329    0.00000    0.00000   # HCW-CW-CW-HCW
15     0.00000   10.74329    0.00000    0.00000   # HCW-CW-CW-NA
16     0.00000    2.99799    0.00000    0.00000   # HCW-CW-NA-CR
17     0.00000    2.99799    0.00000    0.00000   # HCW-CW-NA-C1
18     0.00000    2.99799    0.00000    0.00000   # HCW-CW-NA-C1A
19     0.00000    4.64794    0.00000    0.00000   # NA-CR-NA-C1
20     0.00000    4.64794    0.00000    0.00000   # NA-CR-NA-CW
21     0.00000    4.64794    0.00000    0.00000   # NA-CR-NA-C1A
22     0.00000    0.00000    0.08766    0.00000   # NA-C1-CE-HC
23     0.00000   10.74329    0.00000    0.00000   # NA-CW-CW-NA
24     0.00000    0.00000    0.00000    0.00000   # O2-CO2-CTA-HC

Improper Coeffs

1      0.99933   -1   2   # CR-CW-NA-C1A
2      1.09926   -1   2   # CW-HCW-CW-NA

 Masses

 1 12.010700 # CO2
 2 12.010700 # CTA
 3 12.010700 # CR
 4 12.010700 # C1
 5 12.010700 # CW
 6 12.010700 # C1A
 7 12.010700 # CE
 8 1.007940 # HC
 9 1.007940 # HCR
 10 1.007940 # H1
 11 1.007940 # HCW
 12 14.006700 # NA
 13 15.999400 # O2

 Atoms # full

1    1   1    0.700   -0.048660   -0.069080    0.009260   # CO2
2    1   2   -0.280    0.192240    0.770120   -1.186440   # CTA
3    1   8    0.060   -0.577160    1.540320   -1.241040   # HC
4    1   8    0.060    0.229240    0.088720   -2.036440   # HC
5    1   8    0.060    1.161140    1.259520   -1.087940   # HC
6    1   13  -0.800   -1.026660    0.190220    0.728260   # O2
7    1   13  -0.800    0.867640   -0.898480    0.430460   # O2
8    2   3   -0.110    3.745040   -3.561280   -1.568240   # CR
9    2   4   -0.170    5.824940   -4.016320   -0.312440   # C1
10   2   5   -0.130    3.395040   -3.892920    0.553960   # CW
11   2   5   -0.130    2.293540   -3.478880    0.042860   # CW
12   2   6   -0.170    1.530240   -2.777080   -2.313040   # C1A
13   2   7   -0.050    6.524040   -5.425660   -0.217340   # CE
14   2   9    0.210    4.294440   -3.412400   -2.486040   # HCR
15   2   10   0.130    5.986740   -3.516780    0.642760   # H1
16   2   10   0.130    6.258740   -3.543210   -1.193440   # H1
17   2   11   0.210    3.589140   -4.058090    1.603460   # HCW
18   2   11   0.210    1.324340   -3.238200    0.454060   # HCW
19   2   10   0.130    0.890740   -1.964380   -1.968640   # H1
20   2   10   0.130    0.768840   -3.550390   -2.414840   # H1
21   2   10   0.130    2.075240   -2.462080   -3.202840   # H1
22   2   8    0.060    6.342740   -5.798000    0.790960   # HC
23   2   8    0.060    5.998840   -6.106250   -0.887540   # HC
24   2   8    0.060    7.575240   -5.286490   -0.469540   # HC
25   2   12   0.150    4.353940   -3.988030   -0.477940   # NA
26   2   12   0.150    2.503640   -3.271600   -1.340140   # NA
27   3   3   -0.110   -4.110460   -0.883180    0.504960   # CR
28   3   4   -0.170   -3.554060   -0.602380    2.837860   # C1
29   3   5   -0.130   -5.145760   -2.333080    1.688160   # CW
30   3   5   -0.130   -5.439960   -2.560380    0.418460   # CW
31   3   6   -0.170   -4.815760   -1.468080   -1.825140   # C1A
32   3   7   -0.050   -4.727260   -0.085980    3.727060   # CE
33   3   9    0.210   -3.402160   -0.118780    0.221260   # HCR
34   3   10   0.130   -3.006060   -1.411680    3.320260   # H1
35   3   10   0.130   -2.979060    0.300420    2.631660   # H1
36   3   11   0.210   -5.503560   -2.797380    2.595360   # HCW
37   3   11   0.210   -6.112360   -3.244650   -0.077740   # HCW
38   3   10   0.130   -4.841760   -2.363080   -2.446740   # H1
39   3   10   0.130   -5.689260   -0.895680   -2.137540   # H1
40   3   10   0.130   -3.943460   -0.874980   -2.099640   # H1
41   3   8    0.060   -4.432160    0.388720    4.662760   # HC
42   3   8    0.060   -5.327860   -0.908680    4.114960   # HC
43   3   8    0.060   -5.340960    0.688920    3.267660   # HC
44   3   12   0.150   -4.198960   -1.291780    1.707960   # NA
45   3   12   0.150   -4.707960   -1.657780   -0.338640   # NA
46   4   1    0.700   -1.919360   -1.484880   -4.686240   # CO2
47   4   2   -0.280   -1.638160    0.021020   -4.486240   # CTA
48   4   8    0.060   -0.549460    0.066220   -4.456740   # HC
49   4   8    0.060   -1.901160    0.323120   -3.472540   # HC
50   4   8    0.060   -1.981860    0.649120   -5.308040   # HC
51   4   13  -0.800   -2.706460   -2.045680   -3.947040   # O2
52   4   13  -0.800   -1.229660   -2.165180   -5.484140   # O2

 Bonds

1 2 1 7
2 1 1 2
3 2 1 6
4 3 2 4
5 3 2 5
6 3 2 3
7 4 8 14
8 5 8 26
9 5 8 25
10 8 9 25
11 7 9 16
12 7 9 15
13 6 9 13
14 9 10 11
15 11 10 25
16 10 10 17
17 11 11 26
18 10 11 18
19 12 12 20
20 12 12 21
21 12 12 19
22 13 12 26
23 14 13 24
24 14 13 22
25 14 13 23
26 5 27 45
27 4 27 33
28 5 27 44
29 7 28 35
30 8 28 44
31 7 28 34
32 6 28 32
33 9 29 30
34 10 29 36
35 11 29 44
36 10 30 37
37 11 30 45
38 12 31 38
39 12 31 39
40 12 31 40
41 13 31 45
42 14 32 42
43 14 32 41
44 14 32 43
45 1 46 47
46 2 46 52
47 2 46 51
48 3 47 48
49 3 47 49
50 3 47 50

 Angles

1 2 2 1 7
2 22 6 1 7
3 2 2 1 6
4 1 1 2 4
5 1 1 2 5
6 1 1 2 3
7 13 4 2 5
8 13 3 2 4
9 13 3 2 5
10 15 14 8 26
11 15 14 8 25
12 21 25 8 26
13 17 16 9 25
14 17 15 9 25
15 12 13 9 25
16 16 15 9 16
17 11 13 9 16
18 11 13 9 15
19 9 11 10 25
20 8 11 10 17
21 20 17 10 25
22 9 10 11 26
23 8 10 11 18
24 20 18 11 26
25 18 20 12 21
26 18 19 12 20
27 19 20 12 26
28 18 19 12 21
29 19 21 12 26
30 19 19 12 26
31 6 9 13 24
32 6 9 13 22
33 6 9 13 23
34 14 22 13 24
35 14 23 13 24
36 14 22 13 23
37 3 8 25 9
38 4 8 25 10
39 7 9 25 10
40 4 8 26 11
41 5 8 26 12
42 10 11 26 12
43 15 33 27 45
44 21 44 27 45
45 15 33 27 44
46 17 35 28 44
47 16 34 28 35
48 11 32 28 35
49 17 34 28 44
50 12 32 28 44
51 11 32 28 34
52 8 30 29 36
53 9 30 29 44
54 20 36 29 44
55 8 29 30 37
56 9 29 30 45
57 20 37 30 45
58 18 38 31 39
59 18 38 31 40
60 19 38 31 45
61 18 39 31 40
62 19 39 31 45
63 19 40 31 45
64 6 28 32 42
65 6 28 32 41
66 6 28 32 43
67 14 41 32 42
68 14 42 32 43
69 14 41 32 43
70 3 27 44 28
71 4 27 44 29
72 7 28 44 29
73 4 27 45 30
74 5 27 45 31
75 10 30 45 31
76 2 47 46 52
77 2 47 46 51
78 22 51 46 52
79 1 46 47 48
80 1 46 47 49
81 1 46 47 50
82 13 48 47 49
83 13 48 47 50
84 13 49 47 50

 Dihedrals

1 24 7 1 2 4
2 24 7 1 2 5
3 24 7 1 2 3
4 24 6 1 2 4
5 24 6 1 2 5
6 24 6 1 2 3
7 7 14 8 26 11
8 8 14 8 26 12
9 20 25 8 26 11
10 21 25 8 26 12
11 6 14 8 25 9
12 7 14 8 25 10
13 19 26 8 25 9
14 20 26 8 25 10
15 10 16 9 25 8
16 11 16 9 25 10
17 10 15 9 25 8
18 11 15 9 25 10
19 4 13 9 25 8
20 5 13 9 25 10
21 22 25 9 13 24
22 22 25 9 13 22
23 22 25 9 13 23
24 9 16 9 13 24
25 9 16 9 13 22
26 9 16 9 13 23
27 9 15 9 13 24
28 9 15 9 13 22
29 9 15 9 13 23
30 23 25 10 11 26
31 15 25 10 11 18
32 15 17 10 11 26
33 14 17 10 11 18
34 1 11 10 25 8
35 2 11 10 25 9
36 16 17 10 25 8
37 17 17 10 25 9
38 1 10 11 26 8
39 3 10 11 26 12
40 16 18 11 26 8
41 18 18 11 26 12
42 12 20 12 26 8
43 13 20 12 26 11
44 12 21 12 26 8
45 13 21 12 26 11
46 12 19 12 26 8
47 13 19 12 26 11
48 7 33 27 45 30
49 8 33 27 45 31
50 20 44 27 45 30
51 21 44 27 45 31
52 19 45 27 44 28
53 20 45 27 44 29
54 6 33 27 44 28
55 7 33 27 44 29
56 10 35 28 44 27
57 11 35 28 44 29
58 10 34 28 44 27
59 11 34 28 44 29
60 4 32 28 44 27
61 5 32 28 44 29
62 9 35 28 32 42
63 9 35 28 32 41
64 9 35 28 32 43
65 22 44 28 32 42
66 22 44 28 32 41
67 22 44 28 32 43
68 9 34 28 32 42
69 9 34 28 32 41
70 9 34 28 32 43
71 14 36 29 30 37
72 15 36 29 30 45
73 15 44 29 30 37
74 23 44 29 30 45
75 1 30 29 44 27
76 2 30 29 44 28
77 16 36 29 44 27
78 17 36 29 44 28
79 1 29 30 45 27
80 3 29 30 45 31
81 16 37 30 45 27
82 18 37 30 45 31
83 12 38 31 45 27
84 13 38 31 45 30
85 12 39 31 45 27
86 13 39 31 45 30
87 12 40 31 45 27
88 13 40 31 45 30
89 24 52 46 47 48
90 24 52 46 47 49
91 24 52 46 47 50
92 24 51 46 47 48
93 24 51 46 47 49
94 24 51 46 47 50

 Impropers

1 2 25 10 17 11
2 2 26 11 18 10
3 1 8 11 26 12
4 2 44 29 36 30
5 2 45 30 37 29

