LAMMPS data file. CGCMM style. atom_style full generated by VMD/TopoTools v1.7 on Thu Mar 04 18:17:15 AEDT 2021

76 atoms
74 bonds
84 angles
94 dihedrals
5 impropers
22 atom types
23 bond types
22 angle types
24 dihedral types
2 improper types
-30.000  30.000  xlo xhi
-30.000  30.000  ylo yhi
-30.000  30.000 zlo zhi

Masses

   1   11.611  # CO2 DC
   2   11.611  # CTA DC
   3   11.611  # CR DC
   4   11.611  # C1 DC
   5   11.611  # CW DC
   6   11.611  # C1A DC
   7   11.611  # CE DC
   8    1.008  # HC
   9    1.008  # HCR
  10    1.008  # H1
  11    1.008  # HCW
  12   13.607  # NA DC
  13   15.599  # O2 DC
  14    0.400  # CO2 DP
  15    0.400  # CTA DP
  16    0.400  # CR DP
  17    0.400  # C1 DP
  18    0.400  # CW DP
  19    0.400  # C1A DP
  20    0.400  # CE DP
  21    0.400  # NA DP
  22    0.400  # O2 DP

Bond Coeffs

1    316.82908      1.522    # CO2-CTA
2    655.51256      1.250    # CO2-O2
3    339.75829      1.090    # CTA-HC
4    339.75829      1.080    # CR-HCR
5    476.73641      1.315    # CR-NA
6    267.74625      1.529    # C1-CE
7    339.75829      1.090    # C1-H1
8    336.77271      1.466    # C1-NA
9    519.72867      1.341    # CW-CW
10   339.75829      1.080    # CW-HCW
11   426.81762      1.378    # CW-NA
12   339.75829      1.090    # C1A-H1
13   336.77271      1.466    # C1A-NA
14   339.75829      1.090    # CE-HC
  15   500.000000     0.000000  # CO2 DC-DP
  16   500.000000     0.000000  # CTA DC-DP
  17   500.000000     0.000000  # CR DC-DP
  18   500.000000     0.000000  # C1 DC-DP
  19   500.000000     0.000000  # CW DC-DP
  20   500.000000     0.000000  # C1A DC-DP
  21   500.000000     0.000000  # CE DC-DP
  22   500.000000     0.000000  # NA DC-DP
  23   500.000000     0.000000  # O2 DC-DP

Angle Coeffs

1     35.69552    109.500    # CO2-CTA-HC
2     69.95796    117.000    # CTA-CO2-O2
3     69.95796    126.400    # CR-NA-C1
4     69.95796    108.000    # CR-NA-CW
5     69.95796    126.400    # CR-NA-C1A
6     37.47492    110.700    # C1-CE-HC
7     69.95796    125.600    # C1-NA-CW
8     34.97898    130.900    # CW-CW-HCW
9     69.95796    107.100    # CW-CW-NA
10    69.95796    125.600    # CW-NA-C1A
11    37.47492    110.700    # CE-C1-H1
12    58.31423    112.700    # CE-C1-NA
13    32.97268    107.800    # HC-CTA-HC
14    32.97268    107.800    # HC-CE-HC
15    34.97898    125.100    # HCR-CR-NA
16    32.97268    107.800    # H1-C1-H1
17    37.47492    110.700    # H1-C1-NA
18    32.97268    107.800    # H1-C1A-H1
19    37.47492    110.700    # H1-C1A-NA
20    34.97898    122.000    # HCW-CW-NA
21    69.95796    109.800    # NA-CR-NA
22    79.94172    126.000    # O2-CO2-O2

Dihedral Coeffs

1      0.00000    2.99799    0.00000    0.00000   # CW-CW-NA-CR
2      0.00000    2.99799    0.00000    0.00000   # CW-CW-NA-C1
3      0.00000    2.99799    0.00000    0.00000   # CW-CW-NA-C1A
4     -1.25850    0.00000    0.00000    0.00000   # CE-C1-NA-CR
5     -1.70858    1.45849    0.18962    0.00000   # CE-C1-NA-CW
6      0.00000    4.64794    0.00000    0.00000   # HCR-CR-NA-C1
7      0.00000    4.64794    0.00000    0.00000   # HCR-CR-NA-CW
8      0.00000    4.64794    0.00000    0.00000   # HCR-CR-NA-C1A
9      0.00000    0.00000    0.29980    0.00000   # H1-C1-CE-HC
10     0.00000    0.00000    0.00000    0.00000   # H1-C1-NA-CR
11     0.00000    0.00000    0.12396    0.00000   # H1-C1-NA-CW
12     0.00000    0.00000    0.00000    0.00000   # H1-C1A-NA-CR
13     0.00000    0.00000    0.12396    0.00000   # H1-C1A-NA-CW
14     0.00000   10.74329    0.00000    0.00000   # HCW-CW-CW-HCW
15     0.00000   10.74329    0.00000    0.00000   # HCW-CW-CW-NA
16     0.00000    2.99799    0.00000    0.00000   # HCW-CW-NA-CR
17     0.00000    2.99799    0.00000    0.00000   # HCW-CW-NA-C1
18     0.00000    2.99799    0.00000    0.00000   # HCW-CW-NA-C1A
19     0.00000    4.64794    0.00000    0.00000   # NA-CR-NA-C1
20     0.00000    4.64794    0.00000    0.00000   # NA-CR-NA-CW
21     0.00000    4.64794    0.00000    0.00000   # NA-CR-NA-C1A
22     0.00000    0.00000    0.08766    0.00000   # NA-C1-CE-HC
23     0.00000   10.74329    0.00000    0.00000   # NA-CW-CW-NA
24     0.00000    0.00000    0.00000    0.00000   # O2-CO2-CTA-HC

Improper Coeffs

1      0.99933   -1   2   # CR-CW-NA-C1A
2      1.09926   -1   2   # CW-HCW-CW-NA

Atoms

      1       1    1   2.7771 -4.866000e-02 -6.908000e-02  9.260000e-03  # CO2 DC
      2       1    2   2.1655  1.922400e-01  7.701200e-01 -1.186440e+00  # CTA DC
      3       1    8   0.0600 -5.771600e-01  1.540320e+00 -1.241040e+00  # HC
      4       1    8   0.0600  2.292400e-01  8.872000e-02 -2.036440e+00  # HC
      5       1    8   0.0600  1.161140e+00  1.259520e+00 -1.087940e+00  # HC
      6       1   13   1.0565 -1.026660e+00  1.902200e-01  7.282600e-01  # O2 DC
      7       1   13   1.0565  8.676400e-01 -8.984800e-01  4.304600e-01  # O2 DC
      8       2    3   1.9765  3.745040e+00 -3.561280e+00 -1.568240e+00  # CR DC
      9       2    4   2.0677  5.824940e+00 -4.016320e+00 -3.124400e-01  # C1 DC
     10       2    5   1.9565  3.395040e+00 -3.892920e+00  5.539600e-01  # CW DC
     11       2    5   1.9565  2.293540e+00 -3.478880e+00  4.286000e-02  # CW DC
     12       2    6   2.2755  1.530240e+00 -2.777080e+00 -2.313040e+00  # C1A DC
     13       2    7   2.3955  6.524040e+00 -5.425660e+00 -2.173400e-01  # CE DC
     14       2    9   0.2100  4.294440e+00 -3.412400e+00 -2.486040e+00  # HCR
     15       2   10   0.1300  5.986740e+00 -3.516780e+00  6.427600e-01  # H1
     16       2   10   0.1300  6.258740e+00 -3.543210e+00 -1.193440e+00  # H1
     17       2   11   0.2100  3.589140e+00 -4.058090e+00  1.603460e+00  # HCW
     18       2   11   0.2100  1.324340e+00 -3.238200e+00  4.540600e-01  # HCW
     19       2   10   0.1300  8.907400e-01 -1.964380e+00 -1.968640e+00  # H1
     20       2   10   0.1300  7.688400e-01 -3.550390e+00 -2.414840e+00  # H1
     21       2   10   0.1300  2.075240e+00 -2.462080e+00 -3.202840e+00  # H1
     22       2    8   0.0600  6.342740e+00 -5.798000e+00  7.909600e-01  # HC
     23       2    8   0.0600  5.998840e+00 -6.106250e+00 -8.875400e-01  # HC
     24       2    8   0.0600  7.575240e+00 -5.286490e+00 -4.695400e-01  # HC
     25       2   12   2.0577  4.353940e+00 -3.988030e+00 -4.779400e-01  # NA DC
     26       2   12   2.0577  2.503640e+00 -3.271600e+00 -1.340140e+00  # NA DC
     27       3    3   1.9765 -4.110460e+00 -8.831800e-01  5.049600e-01  # CR DC
     28       3    4   2.0677 -3.554060e+00 -6.023800e-01  2.837860e+00  # C1 DC
     29       3    5   1.9565 -5.145760e+00 -2.333080e+00  1.688160e+00  # CW DC
     30       3    5   1.9565 -5.439960e+00 -2.560380e+00  4.184600e-01  # CW DC
     31       3    6   2.2755 -4.815760e+00 -1.468080e+00 -1.825140e+00  # C1A DC
     32       3    7   2.3955 -4.727260e+00 -8.598000e-02  3.727060e+00  # CE DC
     33       3    9   0.2100 -3.402160e+00 -1.187800e-01  2.212600e-01  # HCR
     34       3   10   0.1300 -3.006060e+00 -1.411680e+00  3.320260e+00  # H1
     35       3   10   0.1300 -2.979060e+00  3.004200e-01  2.631660e+00  # H1
     36       3   11   0.2100 -5.503560e+00 -2.797380e+00  2.595360e+00  # HCW
     37       3   11   0.2100 -6.112360e+00 -3.244650e+00 -7.774000e-02  # HCW
     38       3   10   0.1300 -4.841760e+00 -2.363080e+00 -2.446740e+00  # H1
     39       3   10   0.1300 -5.689260e+00 -8.956800e-01 -2.137540e+00  # H1
     40       3   10   0.1300 -3.943460e+00 -8.749800e-01 -2.099640e+00  # H1
     41       3    8   0.0600 -4.432160e+00  3.887200e-01  4.662760e+00  # HC
     42       3    8   0.0600 -5.327860e+00 -9.086800e-01  4.114960e+00  # HC
     43       3    8   0.0600 -5.340960e+00  6.889200e-01  3.267660e+00  # HC
     44       3   12   2.0577 -4.198960e+00 -1.291780e+00  1.707960e+00  # NA DC
     45       3   12   2.0577 -4.707960e+00 -1.657780e+00 -3.386400e-01  # NA DC
     46       4    1   2.7771 -1.919360e+00 -1.484880e+00 -4.686240e+00  # CO2 DC
     47       4    2   2.1655 -1.638160e+00  2.102000e-02 -4.486240e+00  # CTA DC
     48       4    8   0.0600 -5.494600e-01  6.622000e-02 -4.456740e+00  # HC
     49       4    8   0.0600 -1.901160e+00  3.231200e-01 -3.472540e+00  # HC
     50       4    8   0.0600 -1.981860e+00  6.491200e-01 -5.308040e+00  # HC
     51       4   13   1.0565 -2.706460e+00 -2.045680e+00 -3.947040e+00  # O2 DC
     52       4   13   1.0565 -1.229660e+00 -2.165180e+00 -5.484140e+00  # O2 DC
     53       1   14  -2.0771 -9.342364e-02 -1.103613e-01 -1.582363e-05  # CO2 DP
     54       1   15  -2.4455  1.530100e-01  8.102399e-01 -1.232625e+00  # CTA DP
     55       1   22  -1.8565 -1.023040e+00  1.734398e-01  7.634687e-01  # O2 DP
     56       1   22  -1.8565  8.336062e-01 -9.147583e-01  4.138396e-01  # O2 DP
     57       2   16  -2.0865  3.719556e+00 -3.611113e+00 -1.574612e+00  # CR DP
     58       2   17  -2.2377  5.783701e+00 -4.006560e+00 -3.554523e-01  # C1 DP
     59       2   18  -2.0865  3.376586e+00 -3.898088e+00  5.944999e-01  # CW DP
     60       2   18  -2.0865  2.252816e+00 -3.514662e+00  7.186718e-02  # CW DP
     61       2   19  -2.4455  1.482364e+00 -2.735965e+00 -2.305699e+00  # C1A DP
     62       2   20  -2.4455  6.500572e+00 -5.391876e+00 -1.904605e-01  # CE DP
     63       2   21  -1.9077  4.338286e+00 -3.957880e+00 -5.072538e-01  # NA DP
     64       2   21  -1.9077  2.514530e+00 -3.268893e+00 -1.309206e+00  # NA DP
     65       3   16  -2.0865 -4.128934e+00 -8.933562e-01  5.318879e-01  # CR DP
     66       3   17  -2.2377 -3.552785e+00 -5.838963e-01  2.851695e+00  # C1 DP
     67       3   18  -2.0865 -5.129094e+00 -2.294070e+00  1.686774e+00  # CW DP
     68       3   18  -2.0865 -5.423113e+00 -2.572928e+00  3.716441e-01  # CW DP
     69       3   19  -2.4455 -4.790343e+00 -1.499934e+00 -1.793121e+00  # C1A DP
     70       3   20  -2.4455 -4.685895e+00 -7.017258e-02  3.694073e+00  # CE DP
     71       3   21  -1.9077 -4.215268e+00 -1.302661e+00  1.665289e+00  # NA DP
     72       3   21  -1.9077 -4.712283e+00 -1.650463e+00 -3.550294e-01  # NA DP
     73       4   14  -2.0771 -1.950454e+00 -1.526064e+00 -4.673408e+00  # CO2 DP
     74       4   15  -2.4455 -1.686877e+00  6.211368e-03 -4.513327e+00  # CTA DP
     75       4   22  -1.8565 -2.703260e+00 -2.023314e+00 -3.906125e+00  # O2 DP
     76       4   22  -1.8565 -1.215780e+00 -2.116001e+00 -5.437734e+00  # O2 DP

Bonds

1 2 1 7
2 1 1 2
3 2 1 6
4 3 2 4
5 3 2 5
6 3 2 3
7 4 8 14
8 5 8 26
9 5 8 25
10 8 9 25
11 7 9 16
12 7 9 15
13 6 9 13
14 9 10 11
15 11 10 25
16 10 10 17
17 11 11 26
18 10 11 18
19 12 12 20
20 12 12 21
21 12 12 19
22 13 12 26
23 14 13 24
24 14 13 22
25 14 13 23
26 5 27 45
27 4 27 33
28 5 27 44
29 7 28 35
30 8 28 44
31 7 28 34
32 6 28 32
33 9 29 30
34 10 29 36
35 11 29 44
36 10 30 37
37 11 30 45
38 12 31 38
39 12 31 39
40 12 31 40
41 13 31 45
42 14 32 42
43 14 32 41
44 14 32 43
45 1 46 47
46 2 46 52
47 2 46 51
48 3 47 48
49 3 47 49
50 3 47 50
     51   15       1      53  # CO2 DC-DP
     52   16       2      54  # CTA DC-DP
     53   23       6      55  # O2 DC-DP
     54   23       7      56  # O2 DC-DP
     55   17       8      57  # CR DC-DP
     56   18       9      58  # C1 DC-DP
     57   19      10      59  # CW DC-DP
     58   19      11      60  # CW DC-DP
     59   20      12      61  # C1A DC-DP
     60   21      13      62  # CE DC-DP
     61   22      25      63  # NA DC-DP
     62   22      26      64  # NA DC-DP
     63   17      27      65  # CR DC-DP
     64   18      28      66  # C1 DC-DP
     65   19      29      67  # CW DC-DP
     66   19      30      68  # CW DC-DP
     67   20      31      69  # C1A DC-DP
     68   21      32      70  # CE DC-DP
     69   22      44      71  # NA DC-DP
     70   22      45      72  # NA DC-DP
     71   15      46      73  # CO2 DC-DP
     72   16      47      74  # CTA DC-DP
     73   23      51      75  # O2 DC-DP
     74   23      52      76  # O2 DC-DP

Angles

1 2 2 1 7
2 22 6 1 7
3 2 2 1 6
4 1 1 2 4
5 1 1 2 5
6 1 1 2 3
7 13 4 2 5
8 13 3 2 4
9 13 3 2 5
10 15 14 8 26
11 15 14 8 25
12 21 25 8 26
13 17 16 9 25
14 17 15 9 25
15 12 13 9 25
16 16 15 9 16
17 11 13 9 16
18 11 13 9 15
19 9 11 10 25
20 8 11 10 17
21 20 17 10 25
22 9 10 11 26
23 8 10 11 18
24 20 18 11 26
25 18 20 12 21
26 18 19 12 20
27 19 20 12 26
28 18 19 12 21
29 19 21 12 26
30 19 19 12 26
31 6 9 13 24
32 6 9 13 22
33 6 9 13 23
34 14 22 13 24
35 14 23 13 24
36 14 22 13 23
37 3 8 25 9
38 4 8 25 10
39 7 9 25 10
40 4 8 26 11
41 5 8 26 12
42 10 11 26 12
43 15 33 27 45
44 21 44 27 45
45 15 33 27 44
46 17 35 28 44
47 16 34 28 35
48 11 32 28 35
49 17 34 28 44
50 12 32 28 44
51 11 32 28 34
52 8 30 29 36
53 9 30 29 44
54 20 36 29 44
55 8 29 30 37
56 9 29 30 45
57 20 37 30 45
58 18 38 31 39
59 18 38 31 40
60 19 38 31 45
61 18 39 31 40
62 19 39 31 45
63 19 40 31 45
64 6 28 32 42
65 6 28 32 41
66 6 28 32 43
67 14 41 32 42
68 14 42 32 43
69 14 41 32 43
70 3 27 44 28
71 4 27 44 29
72 7 28 44 29
73 4 27 45 30
74 5 27 45 31
75 10 30 45 31
76 2 47 46 52
77 2 47 46 51
78 22 51 46 52
79 1 46 47 48
80 1 46 47 49
81 1 46 47 50
82 13 48 47 49
83 13 48 47 50
84 13 49 47 50

Dihedrals

1 24 7 1 2 4
2 24 7 1 2 5
3 24 7 1 2 3
4 24 6 1 2 4
5 24 6 1 2 5
6 24 6 1 2 3
7 7 14 8 26 11
8 8 14 8 26 12
9 20 25 8 26 11
10 21 25 8 26 12
11 6 14 8 25 9
12 7 14 8 25 10
13 19 26 8 25 9
14 20 26 8 25 10
15 10 16 9 25 8
16 11 16 9 25 10
17 10 15 9 25 8
18 11 15 9 25 10
19 4 13 9 25 8
20 5 13 9 25 10
21 22 25 9 13 24
22 22 25 9 13 22
23 22 25 9 13 23
24 9 16 9 13 24
25 9 16 9 13 22
26 9 16 9 13 23
27 9 15 9 13 24
28 9 15 9 13 22
29 9 15 9 13 23
30 23 25 10 11 26
31 15 25 10 11 18
32 15 17 10 11 26
33 14 17 10 11 18
34 1 11 10 25 8
35 2 11 10 25 9
36 16 17 10 25 8
37 17 17 10 25 9
38 1 10 11 26 8
39 3 10 11 26 12
40 16 18 11 26 8
41 18 18 11 26 12
42 12 20 12 26 8
43 13 20 12 26 11
44 12 21 12 26 8
45 13 21 12 26 11
46 12 19 12 26 8
47 13 19 12 26 11
48 7 33 27 45 30
49 8 33 27 45 31
50 20 44 27 45 30
51 21 44 27 45 31
52 19 45 27 44 28
53 20 45 27 44 29
54 6 33 27 44 28
55 7 33 27 44 29
56 10 35 28 44 27
57 11 35 28 44 29
58 10 34 28 44 27
59 11 34 28 44 29
60 4 32 28 44 27
61 5 32 28 44 29
62 9 35 28 32 42
63 9 35 28 32 41
64 9 35 28 32 43
65 22 44 28 32 42
66 22 44 28 32 41
67 22 44 28 32 43
68 9 34 28 32 42
69 9 34 28 32 41
70 9 34 28 32 43
71 14 36 29 30 37
72 15 36 29 30 45
73 15 44 29 30 37
74 23 44 29 30 45
75 1 30 29 44 27
76 2 30 29 44 28
77 16 36 29 44 27
78 17 36 29 44 28
79 1 29 30 45 27
80 3 29 30 45 31
81 16 37 30 45 27
82 18 37 30 45 31
83 12 38 31 45 27
84 13 38 31 45 30
85 12 39 31 45 27
86 13 39 31 45 30
87 12 40 31 45 27
88 13 40 31 45 30
89 24 52 46 47 48
90 24 52 46 47 49
91 24 52 46 47 50
92 24 51 46 47 48
93 24 51 46 47 49
94 24 51 46 47 50

Impropers

1 2 25 10 17 11
2 2 26 11 18 10
3 1 8 11 26 12
4 2 44 29 36 30
5 2 45 30 37 29
