LAMMPS data file. CGCMM style. atom_style full generated by VMD/TopoTools v1.7 on Thu Mar 04 18:17:13 AEDT 2021

76 atoms
74 bonds
84 angles
94 dihedrals
7 impropers
22 atom types
23 bond types
22 angle types
24 dihedral types
4 improper types
-30.000  30.000  xlo xhi
-30.000  30.000  ylo yhi
-30.000  30.000 zlo zhi

Masses

   1   11.611  # CO2 DC
   2   11.611  # CTA DC
   3   11.611  # CR DC
   4   11.611  # C1 DC
   5   11.611  # CW DC
   6   11.611  # C1A DC
   7   11.611  # CE DC
   8    1.008  # HC
   9    1.008  # HCR
  10    1.008  # H1
  11    1.008  # HCW
  12   13.607  # NA DC
  13   15.599  # O2 DC
  14    0.400  # CO2 DP
  15    0.400  # CTA DP
  16    0.400  # CR DP
  17    0.400  # C1 DP
  18    0.400  # CW DP
  19    0.400  # C1A DP
  20    0.400  # CE DP
  21    0.400  # NA DP
  22    0.400  # O2 DP

Bond Coeffs

1    316.82908      1.522    # CO2-CTA
2    655.51256      1.250    # CO2-O2
3    339.75829      1.090    # CTA-HC
4    339.75829      1.080    # CR-HCR
5    476.73641      1.315    # CR-NA
6    267.74625      1.529    # C1-CE
7    339.75829      1.090    # C1-H1
8    336.77271      1.466    # C1-NA
9    519.72867      1.341    # CW-CW
10   339.75829      1.080    # CW-HCW
11   426.81762      1.378    # CW-NA
12   339.75829      1.090    # C1A-H1
13   336.77271      1.466    # C1A-NA
14   339.75829      1.090    # CE-HC
  15   500.000000     0.000000  # CO2 DC-DP
  16   500.000000     0.000000  # CTA DC-DP
  17   500.000000     0.000000  # CR DC-DP
  18   500.000000     0.000000  # C1 DC-DP
  19   500.000000     0.000000  # CW DC-DP
  20   500.000000     0.000000  # C1A DC-DP
  21   500.000000     0.000000  # CE DC-DP
  22   500.000000     0.000000  # NA DC-DP
  23   500.000000     0.000000  # O2 DC-DP

Angle Coeffs

1     35.69552    109.500    # CO2-CTA-HC
2     69.95796    117.000    # CTA-CO2-O2
3     69.95796    126.400    # CR-NA-C1
4     69.95796    108.000    # CR-NA-CW
5     69.95796    126.400    # CR-NA-C1A
6     37.47492    110.700    # C1-CE-HC
7     69.95796    125.600    # C1-NA-CW
8     34.97898    130.900    # CW-CW-HCW
9     69.95796    107.100    # CW-CW-NA
10    69.95796    125.600    # CW-NA-C1A
11    37.47492    110.700    # CE-C1-H1
12    58.31423    112.700    # CE-C1-NA
13    32.97268    107.800    # HC-CTA-HC
14    32.97268    107.800    # HC-CE-HC
15    34.97898    125.100    # HCR-CR-NA
16    32.97268    107.800    # H1-C1-H1
17    37.47492    110.700    # H1-C1-NA
18    32.97268    107.800    # H1-C1A-H1
19    37.47492    110.700    # H1-C1A-NA
20    34.97898    122.000    # HCW-CW-NA
21    69.95796    109.800    # NA-CR-NA
22    79.94172    126.000    # O2-CO2-O2

Dihedral Coeffs

1      0.00000    2.99799    0.00000    0.00000   # CW-CW-NA-CR
2      0.00000    2.99799    0.00000    0.00000   # CW-CW-NA-C1
3      0.00000    2.99799    0.00000    0.00000   # CW-CW-NA-C1A
4     -1.25850    0.00000    0.00000    0.00000   # CE-C1-NA-CR
5     -1.70858    1.45849    0.18962    0.00000   # CE-C1-NA-CW
6      0.00000    4.64794    0.00000    0.00000   # HCR-CR-NA-C1
7      0.00000    4.64794    0.00000    0.00000   # HCR-CR-NA-CW
8      0.00000    4.64794    0.00000    0.00000   # HCR-CR-NA-C1A
9      0.00000    0.00000    0.29980    0.00000   # H1-C1-CE-HC
10     0.00000    0.00000    0.00000    0.00000   # H1-C1-NA-CR
11     0.00000    0.00000    0.12396    0.00000   # H1-C1-NA-CW
12     0.00000    0.00000    0.00000    0.00000   # H1-C1A-NA-CR
13     0.00000    0.00000    0.12396    0.00000   # H1-C1A-NA-CW
14     0.00000   10.74329    0.00000    0.00000   # HCW-CW-CW-HCW
15     0.00000   10.74329    0.00000    0.00000   # HCW-CW-CW-NA
16     0.00000    2.99799    0.00000    0.00000   # HCW-CW-NA-CR
17     0.00000    2.99799    0.00000    0.00000   # HCW-CW-NA-C1
18     0.00000    2.99799    0.00000    0.00000   # HCW-CW-NA-C1A
19     0.00000    4.64794    0.00000    0.00000   # NA-CR-NA-C1
20     0.00000    4.64794    0.00000    0.00000   # NA-CR-NA-CW
21     0.00000    4.64794    0.00000    0.00000   # NA-CR-NA-C1A
22     0.00000    0.00000    0.08766    0.00000   # NA-C1-CE-HC
23     0.00000   10.74329    0.00000    0.00000   # NA-CW-CW-NA
24     0.00000    0.00000    0.00000    0.00000   # O2-CO2-CTA-HC

Improper Coeffs

1     10.49298   -1   2   # CTA-O2-CO2-O2
2      0.99933   -1   2   # CR-CW-NA-C1A
3      1.09926   -1   2   # CW-HCW-CW-NA
4      1.09926   -1   2   # HCR-NA-CR-NA

Atoms

      1       1    1   2.7771 -8.910000e-03  6.925000e-02 -1.623000e-02  # CO2 DC
      2       1    2   2.1655 -2.083100e-01 -1.402150e+00 -2.343000e-02  # CTA DC
      3       1    8   0.0600  2.002900e-01 -1.764950e+00  9.196700e-01  # HC
      4       1    8   0.0600  3.191900e-01 -1.890850e+00 -8.425300e-01  # HC
      5       1    8   0.0600 -1.249710e+00 -1.663150e+00 -2.113300e-01  # HC
      6       1   13   1.0565  9.897900e-01  5.092500e-01 -6.025300e-01  # O2 DC
      7       1   13   1.0565 -7.807100e-01  8.264500e-01  6.407700e-01  # O2 DC
      8       2    3   1.9765 -4.282310e+00  1.436450e+00 -3.018230e+00  # CR DC
      9       2    4   2.0677 -2.614510e+00  1.787550e+00 -4.888730e+00  # C1 DC
     10       2    5   1.9565 -2.250310e+00  8.514500e-01 -2.627930e+00  # CW DC
     11       2    5   1.9565 -3.025310e+00  4.488500e-01 -1.601430e+00  # CW DC
     12       2    6   2.2755 -5.512810e+00  8.325500e-01 -9.013300e-01  # C1A DC
     13       2    7   2.3955 -3.643210e+00  2.338350e+00 -5.912330e+00  # CE DC
     14       2    9   0.2100 -5.157010e+00  1.803950e+00 -3.534330e+00  # HCR
     15       2   10   0.1300 -1.724610e+00  2.416850e+00 -4.874530e+00  # H1
     16       2   10   0.1300 -2.295710e+00  8.236500e-01 -5.285430e+00  # H1
     17       2   11   0.2100 -1.203710e+00  6.374500e-01 -2.786630e+00  # HCW
     18       2   11   0.2100 -2.831110e+00 -2.165500e-01 -7.731300e-01  # HCW
     19       2   10   0.1300 -6.210710e+00  1.669650e+00 -9.199300e-01  # H1
     20       2   10   0.1300 -5.907810e+00 -1.146500e-01 -1.268530e+00  # H1
     21       2   10   0.1300 -5.145710e+00  6.991500e-01  1.162700e-01  # H1
     22       2    8   0.0600 -3.081510e+00  2.630850e+00 -6.799430e+00  # HC
     23       2    8   0.0600 -4.508610e+00  1.697750e+00 -6.082230e+00  # HC
     24       2    8   0.0600 -4.077110e+00  3.188350e+00 -5.385730e+00  # HC
     25       2   12   2.0577 -3.046910e+00  1.442250e+00 -3.514630e+00  # NA DC
     26       2   12   2.0577 -4.289010e+00  9.698500e-01 -1.785330e+00  # NA DC
     27       3    3   1.9765 -1.167710e+00 -5.421050e+00 -3.232030e+00  # CR DC
     28       3    4   2.0677 -4.971000e-02 -7.738350e+00 -2.948430e+00  # C1 DC
     29       3    5   1.9565 -1.338210e+00 -6.258550e+00 -1.263330e+00  # CW DC
     30       3    5   1.9565 -1.737710e+00 -4.977550e+00 -1.283630e+00  # CW DC
     31       3    6   2.2755 -2.148910e+00 -3.165150e+00 -2.967130e+00  # C1A DC
     32       3    7   2.3955  3.267900e-01 -7.715250e+00 -4.427830e+00  # CE DC
     33       3    9   0.2100 -8.703100e-01 -5.338950e+00 -4.267030e+00  # HCR
     34       3   10   0.1300 -3.452100e-01 -8.734250e+00 -2.618430e+00  # H1
     35       3   10   0.1300  9.108900e-01 -7.604150e+00 -2.451030e+00  # H1
     36       3   11   0.2100 -1.206710e+00 -7.010950e+00 -4.998300e-01  # HCW
     37       3   11   0.2100 -2.218110e+00 -4.537350e+00 -4.223300e-01  # HCW
     38       3   10   0.1300 -1.689010e+00 -2.886350e+00 -3.915130e+00  # H1
     39       3   10   0.1300 -3.237910e+00 -3.123850e+00 -2.992430e+00  # H1
     40       3   10   0.1300 -1.909710e+00 -2.416150e+00 -2.212230e+00  # H1
     41       3    8   0.0600  9.133900e-01 -6.835350e+00 -4.692130e+00  # HC
     42       3    8   0.0600  8.887900e-01 -8.591350e+00 -4.751130e+00  # HC
     43       3    8   0.0600 -4.702100e-01 -7.699850e+00 -5.171230e+00  # HC
     44       3   12   2.0577 -9.297100e-01 -6.581150e+00 -2.544530e+00  # NA DC
     45       3   12   2.0577 -1.681210e+00 -4.453050e+00 -2.493030e+00  # NA DC
     46       4    1   2.7771 -5.190810e+00 -3.090550e+00  2.125700e-01  # CO2 DC
     47       4    2   2.1655 -4.275510e+00 -3.542350e+00  1.382370e+00  # CTA DC
     48       4    8   0.0600 -3.275410e+00 -3.308150e+00  1.017770e+00  # HC
     49       4    8   0.0600 -4.463410e+00 -2.940150e+00  2.271270e+00  # HC
     50       4    8   0.0600 -4.459810e+00 -4.591450e+00  1.613770e+00  # HC
     51       4   13   1.0565 -4.642310e+00 -2.536250e+00 -7.422300e-01  # O2 DC
     52       4   13   1.0565 -6.378810e+00 -3.434150e+00  4.133700e-01  # O2 DC
     53       1   14  -2.0771 -5.367364e-02  2.796867e-02 -2.550582e-02  # CO2 DP
     54       1   15  -2.4455 -2.475400e-01 -1.362030e+00 -6.961463e-02  # CTA DP
     55       1   22  -1.8565  9.934102e-01  4.924698e-01 -5.673213e-01  # O2 DP
     56       1   22  -1.8565 -8.147438e-01  8.101717e-01  6.241496e-01  # O2 DP
     57       2   16  -2.0865 -4.307794e+00  1.386617e+00 -3.024602e+00  # CR DP
     58       2   17  -2.2377 -2.655749e+00  1.797310e+00 -4.931742e+00  # C1 DP
     59       2   18  -2.0865 -2.268764e+00  8.462822e-01 -2.587390e+00  # CW DP
     60       2   18  -2.0865 -3.066034e+00  4.130675e-01 -1.572423e+00  # CW DP
     61       2   19  -2.4455 -5.560686e+00  8.736651e-01 -8.939892e-01  # C1A DP
     62       2   20  -2.4455 -3.666678e+00  2.372134e+00 -5.885451e+00  # CE DP
     63       2   21  -1.9077 -3.062564e+00  1.472400e+00 -3.543944e+00  # NA DP
     64       2   21  -1.9077 -4.278120e+00  9.725575e-01 -1.754396e+00  # NA DP
     65       3   16  -2.0865 -1.186184e+00 -5.431226e+00 -3.205102e+00  # CR DP
     66       3   17  -2.2377 -4.843479e-02 -7.719866e+00 -2.934595e+00  # C1 DP
     67       3   18  -2.0865 -1.321544e+00 -6.219540e+00 -1.264716e+00  # CW DP
     68       3   18  -2.0865 -1.720863e+00 -4.990098e+00 -1.330446e+00  # CW DP
     69       3   19  -2.4455 -2.123493e+00 -3.197004e+00 -2.935111e+00  # C1A DP
     70       3   20  -2.4455  3.681546e-01 -7.699443e+00 -4.460817e+00  # CE DP
     71       3   21  -1.9077 -9.460184e-01 -6.592031e+00 -2.587201e+00  # NA DP
     72       3   21  -1.9077 -1.685533e+00 -4.445733e+00 -2.509419e+00  # NA DP
     73       4   14  -2.0771 -5.221904e+00 -3.131734e+00  2.254018e-01  # CO2 DP
     74       4   15  -2.4455 -4.324227e+00 -3.557159e+00  1.355283e+00  # CTA DP
     75       4   22  -1.8565 -4.639110e+00 -2.513884e+00 -7.013147e-01  # O2 DP
     76       4   22  -1.8565 -6.364930e+00 -3.384971e+00  4.597759e-01  # O2 DP

Bonds

1 1 1 2
2 2 1 6
3 2 1 7
4 3 2 3
5 3 2 5
6 3 2 4
7 4 8 14
8 5 8 25
9 5 8 26
10 6 9 13
11 7 9 15
12 7 9 16
13 8 9 25
14 9 10 11
15 10 10 17
16 11 10 25
17 10 11 18
18 11 11 26
19 12 12 20
20 13 12 26
21 12 12 19
22 12 12 21
23 14 13 22
24 14 13 24
25 14 13 23
26 4 27 33
27 5 27 44
28 5 27 45
29 6 28 32
30 7 28 35
31 7 28 34
32 8 28 44
33 9 29 30
34 11 29 44
35 10 29 36
36 11 30 45
37 10 30 37
38 12 31 38
39 13 31 45
40 12 31 40
41 12 31 39
42 14 32 41
43 14 32 42
44 14 32 43
45 2 46 52
46 1 46 47
47 2 46 51
48 3 47 49
49 3 47 50
50 3 47 48
     51   15       1      53  # CO2 DC-DP
     52   16       2      54  # CTA DC-DP
     53   23       6      55  # O2 DC-DP
     54   23       7      56  # O2 DC-DP
     55   17       8      57  # CR DC-DP
     56   18       9      58  # C1 DC-DP
     57   19      10      59  # CW DC-DP
     58   19      11      60  # CW DC-DP
     59   20      12      61  # C1A DC-DP
     60   21      13      62  # CE DC-DP
     61   22      25      63  # NA DC-DP
     62   22      26      64  # NA DC-DP
     63   17      27      65  # CR DC-DP
     64   18      28      66  # C1 DC-DP
     65   19      29      67  # CW DC-DP
     66   19      30      68  # CW DC-DP
     67   20      31      69  # C1A DC-DP
     68   21      32      70  # CE DC-DP
     69   22      44      71  # NA DC-DP
     70   22      45      72  # NA DC-DP
     71   15      46      73  # CO2 DC-DP
     72   16      47      74  # CTA DC-DP
     73   23      51      75  # O2 DC-DP
     74   23      52      76  # O2 DC-DP

Angles

1 2 2 1 6
2 2 2 1 7
3 22 6 1 7
4 1 1 2 3
5 1 1 2 5
6 1 1 2 4
7 13 3 2 5
8 13 3 2 4
9 13 4 2 5
10 15 14 8 25
11 15 14 8 26
12 21 25 8 26
13 11 13 9 15
14 11 13 9 16
15 12 13 9 25
16 16 15 9 16
17 17 15 9 25
18 17 16 9 25
19 8 11 10 17
20 9 11 10 25
21 20 17 10 25
22 8 10 11 18
23 9 10 11 26
24 20 18 11 26
25 19 20 12 26
26 18 19 12 20
27 18 20 12 21
28 19 19 12 26
29 19 21 12 26
30 18 19 12 21
31 6 9 13 22
32 6 9 13 24
33 6 9 13 23
34 14 22 13 24
35 14 22 13 23
36 14 23 13 24
37 3 8 25 9
38 4 8 25 10
39 7 9 25 10
40 4 8 26 11
41 5 8 26 12
42 10 11 26 12
43 15 33 27 44
44 15 33 27 45
45 21 44 27 45
46 11 32 28 35
47 11 32 28 34
48 12 32 28 44
49 16 34 28 35
50 17 35 28 44
51 17 34 28 44
52 9 30 29 44
53 8 30 29 36
54 20 36 29 44
55 9 29 30 45
56 8 29 30 37
57 20 37 30 45
58 19 38 31 45
59 18 38 31 40
60 18 38 31 39
61 19 40 31 45
62 19 39 31 45
63 18 39 31 40
64 6 28 32 41
65 6 28 32 42
66 6 28 32 43
67 14 41 32 42
68 14 41 32 43
69 14 42 32 43
70 3 27 44 28
71 4 27 44 29
72 7 28 44 29
73 4 27 45 30
74 5 27 45 31
75 10 30 45 31
76 2 47 46 52
77 22 51 46 52
78 2 47 46 51
79 1 46 47 49
80 1 46 47 50
81 1 46 47 48
82 13 49 47 50
83 13 48 47 49
84 13 48 47 50

Dihedrals

1 24 6 1 2 3
2 24 6 1 2 5
3 24 6 1 2 4
4 24 7 1 2 3
5 24 7 1 2 5
6 24 7 1 2 4
7 6 14 8 25 9
8 7 14 8 25 10
9 19 26 8 25 9
10 20 26 8 25 10
11 7 14 8 26 11
12 8 14 8 26 12
13 20 25 8 26 11
14 21 25 8 26 12
15 9 15 9 13 22
16 9 15 9 13 24
17 9 15 9 13 23
18 9 16 9 13 22
19 9 16 9 13 24
20 9 16 9 13 23
21 22 25 9 13 22
22 22 25 9 13 24
23 22 25 9 13 23
24 4 13 9 25 8
25 5 13 9 25 10
26 10 15 9 25 8
27 11 15 9 25 10
28 10 16 9 25 8
29 11 16 9 25 10
30 14 17 10 11 18
31 15 17 10 11 26
32 15 25 10 11 18
33 23 25 10 11 26
34 1 11 10 25 8
35 2 11 10 25 9
36 16 17 10 25 8
37 17 17 10 25 9
38 1 10 11 26 8
39 3 10 11 26 12
40 16 18 11 26 8
41 18 18 11 26 12
42 12 20 12 26 8
43 13 20 12 26 11
44 12 19 12 26 8
45 13 19 12 26 11
46 12 21 12 26 8
47 13 21 12 26 11
48 6 33 27 44 28
49 7 33 27 44 29
50 19 45 27 44 28
51 20 45 27 44 29
52 7 33 27 45 30
53 8 33 27 45 31
54 20 44 27 45 30
55 21 44 27 45 31
56 9 35 28 32 41
57 9 35 28 32 42
58 9 35 28 32 43
59 9 34 28 32 41
60 9 34 28 32 42
61 9 34 28 32 43
62 22 44 28 32 41
63 22 44 28 32 42
64 22 44 28 32 43
65 4 32 28 44 27
66 5 32 28 44 29
67 10 35 28 44 27
68 11 35 28 44 29
69 10 34 28 44 27
70 11 34 28 44 29
71 23 44 29 30 45
72 15 44 29 30 37
73 15 36 29 30 45
74 14 36 29 30 37
75 1 30 29 44 27
76 2 30 29 44 28
77 16 36 29 44 27
78 17 36 29 44 28
79 1 29 30 45 27
80 3 29 30 45 31
81 16 37 30 45 27
82 18 37 30 45 31
83 12 38 31 45 27
84 13 38 31 45 30
85 12 40 31 45 27
86 13 40 31 45 30
87 12 39 31 45 27
88 13 39 31 45 30
89 24 52 46 47 49
90 24 52 46 47 50
91 24 52 46 47 48
92 24 51 46 47 49
93 24 51 46 47 50
94 24 51 46 47 48

Impropers

1 1 7 1 6 2
2 4 26 8 25 14
3 3 26 11 18 10
4 4 45 27 44 33
5 3 44 29 36 30
6 2 27 30 45 31
7 1 51 46 52 47
