LAMMPS data file. CGCMM style. atom_style full generated by VMD/TopoTools v1.7 on Thu Mar 04 18:17:13 AEDT 2021

 52 atoms
 50 bonds
 84 angles
 94 dihedrals
 7 impropers
 13 atom types
 14 bond types
 22 angle types
 24 dihedral types
 4 improper types
-7.379  1.990  xlo xhi
-9.734  4.188  ylo yhi
-7.799  3.271  zlo zhi

Pair Coeffs

1      0.10493      3.750    # CO2
2      0.06595      3.500    # CTA
3      0.06995      3.550    # CR
4      0.06595      3.500    # C1
5      0.06995      3.550    # CW
6      0.06595      3.500    # C1A
7      0.06595      3.500    # CE
8      0.02998      2.500    # HC
9      0.02998      2.420    # HCR
10     0.02998      2.500    # H1
11     0.02998      2.420    # HCW
12     0.16989      3.250    # NA
13     0.20986      2.960    # O2

Bond Coeffs

1    316.82908      1.522    # CO2-CTA
2    655.51256      1.250    # CO2-O2
3    339.75829      1.090    # CTA-HC
4    339.75829      1.080    # CR-HCR
5    476.73641      1.315    # CR-NA
6    267.74625      1.529    # C1-CE
7    339.75829      1.090    # C1-H1
8    336.77271      1.466    # C1-NA
9    519.72867      1.341    # CW-CW
10   339.75829      1.080    # CW-HCW
11   426.81762      1.378    # CW-NA
12   339.75829      1.090    # C1A-H1
13   336.77271      1.466    # C1A-NA
14   339.75829      1.090    # CE-HC

Angle Coeffs

1     35.69552    109.500    # CO2-CTA-HC
2     69.95796    117.000    # CTA-CO2-O2
3     69.95796    126.400    # CR-NA-C1
4     69.95796    108.000    # CR-NA-CW
5     69.95796    126.400    # CR-NA-C1A
6     37.47492    110.700    # C1-CE-HC
7     69.95796    125.600    # C1-NA-CW
8     34.97898    130.900    # CW-CW-HCW
9     69.95796    107.100    # CW-CW-NA
10    69.95796    125.600    # CW-NA-C1A
11    37.47492    110.700    # CE-C1-H1
12    58.31423    112.700    # CE-C1-NA
13    32.97268    107.800    # HC-CTA-HC
14    32.97268    107.800    # HC-CE-HC
15    34.97898    125.100    # HCR-CR-NA
16    32.97268    107.800    # H1-C1-H1
17    37.47492    110.700    # H1-C1-NA
18    32.97268    107.800    # H1-C1A-H1
19    37.47492    110.700    # H1-C1A-NA
20    34.97898    122.000    # HCW-CW-NA
21    69.95796    109.800    # NA-CR-NA
22    79.94172    126.000    # O2-CO2-O2

Dihedral Coeffs

1      0.00000    2.99799    0.00000    0.00000   # CW-CW-NA-CR
2      0.00000    2.99799    0.00000    0.00000   # CW-CW-NA-C1
3      0.00000    2.99799    0.00000    0.00000   # CW-CW-NA-C1A
4     -1.25850    0.00000    0.00000    0.00000   # CE-C1-NA-CR
5     -1.70858    1.45849    0.18962    0.00000   # CE-C1-NA-CW
6      0.00000    4.64794    0.00000    0.00000   # HCR-CR-NA-C1
7      0.00000    4.64794    0.00000    0.00000   # HCR-CR-NA-CW
8      0.00000    4.64794    0.00000    0.00000   # HCR-CR-NA-C1A
9      0.00000    0.00000    0.29980    0.00000   # H1-C1-CE-HC
10     0.00000    0.00000    0.00000    0.00000   # H1-C1-NA-CR
11     0.00000    0.00000    0.12396    0.00000   # H1-C1-NA-CW
12     0.00000    0.00000    0.00000    0.00000   # H1-C1A-NA-CR
13     0.00000    0.00000    0.12396    0.00000   # H1-C1A-NA-CW
14     0.00000   10.74329    0.00000    0.00000   # HCW-CW-CW-HCW
15     0.00000   10.74329    0.00000    0.00000   # HCW-CW-CW-NA
16     0.00000    2.99799    0.00000    0.00000   # HCW-CW-NA-CR
17     0.00000    2.99799    0.00000    0.00000   # HCW-CW-NA-C1
18     0.00000    2.99799    0.00000    0.00000   # HCW-CW-NA-C1A
19     0.00000    4.64794    0.00000    0.00000   # NA-CR-NA-C1
20     0.00000    4.64794    0.00000    0.00000   # NA-CR-NA-CW
21     0.00000    4.64794    0.00000    0.00000   # NA-CR-NA-C1A
22     0.00000    0.00000    0.08766    0.00000   # NA-C1-CE-HC
23     0.00000   10.74329    0.00000    0.00000   # NA-CW-CW-NA
24     0.00000    0.00000    0.00000    0.00000   # O2-CO2-CTA-HC

Improper Coeffs

1     10.49298   -1   2   # CTA-O2-CO2-O2
2      0.99933   -1   2   # CR-CW-NA-C1A
3      1.09926   -1   2   # CW-HCW-CW-NA
4      1.09926   -1   2   # HCR-NA-CR-NA

 Masses

 1 12.010700 # CO2
 2 12.010700 # CTA
 3 12.010700 # CR
 4 12.010700 # C1
 5 12.010700 # CW
 6 12.010700 # C1A
 7 12.010700 # CE
 8 1.007940 # HC
 9 1.007940 # HCR
 10 1.007940 # H1
 11 1.007940 # HCW
 12 14.006700 # NA
 13 15.999400 # O2

 Atoms # full

1    1   1    0.700   -0.008910    0.069250   -0.016230   # CO2
2    1   2   -0.280   -0.208310   -1.402150   -0.023430   # CTA
3    1   8    0.060    0.200290   -1.764950    0.919670   # HC
4    1   8    0.060    0.319190   -1.890850   -0.842530   # HC
5    1   8    0.060   -1.249710   -1.663150   -0.211330   # HC
6    1   13  -0.800    0.989790    0.509250   -0.602530   # O2
7    1   13  -0.800   -0.780710    0.826450    0.640770   # O2
8    2   3   -0.110   -4.282310    1.436450   -3.018230   # CR
9    2   4   -0.170   -2.614510    1.787550   -4.888730   # C1
10   2   5   -0.130   -2.250310    0.851450   -2.627930   # CW
11   2   5   -0.130   -3.025310    0.448850   -1.601430   # CW
12   2   6   -0.170   -5.512810    0.832550   -0.901330   # C1A
13   2   7   -0.050   -3.643210    2.338350   -5.912330   # CE
14   2   9    0.210   -5.157010    1.803950   -3.534330   # HCR
15   2   10   0.130   -1.724610    2.416850   -4.874530   # H1
16   2   10   0.130   -2.295710    0.823650   -5.285430   # H1
17   2   11   0.210   -1.203710    0.637450   -2.786630   # HCW
18   2   11   0.210   -2.831110   -0.216550   -0.773130   # HCW
19   2   10   0.130   -6.210710    1.669650   -0.919930   # H1
20   2   10   0.130   -5.907810   -0.114650   -1.268530   # H1
21   2   10   0.130   -5.145710    0.699150    0.116270   # H1
22   2   8    0.060   -3.081510    2.630850   -6.799430   # HC
23   2   8    0.060   -4.508610    1.697750   -6.082230   # HC
24   2   8    0.060   -4.077110    3.188350   -5.385730   # HC
25   2   12   0.150   -3.046910    1.442250   -3.514630   # NA
26   2   12   0.150   -4.289010    0.969850   -1.785330   # NA
27   3   3   -0.110   -1.167710   -5.421050   -3.232030   # CR
28   3   4   -0.170   -0.049710   -7.738350   -2.948430   # C1
29   3   5   -0.130   -1.338210   -6.258550   -1.263330   # CW
30   3   5   -0.130   -1.737710   -4.977550   -1.283630   # CW
31   3   6   -0.170   -2.148910   -3.165150   -2.967130   # C1A
32   3   7   -0.050    0.326790   -7.715250   -4.427830   # CE
33   3   9    0.210   -0.870310   -5.338950   -4.267030   # HCR
34   3   10   0.130   -0.345210   -8.734250   -2.618430   # H1
35   3   10   0.130    0.910890   -7.604150   -2.451030   # H1
36   3   11   0.210   -1.206710   -7.010950   -0.499830   # HCW
37   3   11   0.210   -2.218110   -4.537350   -0.422330   # HCW
38   3   10   0.130   -1.689010   -2.886350   -3.915130   # H1
39   3   10   0.130   -3.237910   -3.123850   -2.992430   # H1
40   3   10   0.130   -1.909710   -2.416150   -2.212230   # H1
41   3   8    0.060    0.913390   -6.835350   -4.692130   # HC
42   3   8    0.060    0.888790   -8.591350   -4.751130   # HC
43   3   8    0.060   -0.470210   -7.699850   -5.171230   # HC
44   3   12   0.150   -0.929710   -6.581150   -2.544530   # NA
45   3   12   0.150   -1.681210   -4.453050   -2.493030   # NA
46   4   1    0.700   -5.190810   -3.090550    0.212570   # CO2
47   4   2   -0.280   -4.275510   -3.542350    1.382370   # CTA
48   4   8    0.060   -3.275410   -3.308150    1.017770   # HC
49   4   8    0.060   -4.463410   -2.940150    2.271270   # HC
50   4   8    0.060   -4.459810   -4.591450    1.613770   # HC
51   4   13  -0.800   -4.642310   -2.536250   -0.742230   # O2
52   4   13  -0.800   -6.378810   -3.434150    0.413370   # O2

 Bonds

1 1 1 2
2 2 1 6
3 2 1 7
4 3 2 3
5 3 2 5
6 3 2 4
7 4 8 14
8 5 8 25
9 5 8 26
10 6 9 13
11 7 9 15
12 7 9 16
13 8 9 25
14 9 10 11
15 10 10 17
16 11 10 25
17 10 11 18
18 11 11 26
19 12 12 20
20 13 12 26
21 12 12 19
22 12 12 21
23 14 13 22
24 14 13 24
25 14 13 23
26 4 27 33
27 5 27 44
28 5 27 45
29 6 28 32
30 7 28 35
31 7 28 34
32 8 28 44
33 9 29 30
34 11 29 44
35 10 29 36
36 11 30 45
37 10 30 37
38 12 31 38
39 13 31 45
40 12 31 40
41 12 31 39
42 14 32 41
43 14 32 42
44 14 32 43
45 2 46 52
46 1 46 47
47 2 46 51
48 3 47 49
49 3 47 50
50 3 47 48

 Angles

1 2 2 1 6
2 2 2 1 7
3 22 6 1 7
4 1 1 2 3
5 1 1 2 5
6 1 1 2 4
7 13 3 2 5
8 13 3 2 4
9 13 4 2 5
10 15 14 8 25
11 15 14 8 26
12 21 25 8 26
13 11 13 9 15
14 11 13 9 16
15 12 13 9 25
16 16 15 9 16
17 17 15 9 25
18 17 16 9 25
19 8 11 10 17
20 9 11 10 25
21 20 17 10 25
22 8 10 11 18
23 9 10 11 26
24 20 18 11 26
25 19 20 12 26
26 18 19 12 20
27 18 20 12 21
28 19 19 12 26
29 19 21 12 26
30 18 19 12 21
31 6 9 13 22
32 6 9 13 24
33 6 9 13 23
34 14 22 13 24
35 14 22 13 23
36 14 23 13 24
37 3 8 25 9
38 4 8 25 10
39 7 9 25 10
40 4 8 26 11
41 5 8 26 12
42 10 11 26 12
43 15 33 27 44
44 15 33 27 45
45 21 44 27 45
46 11 32 28 35
47 11 32 28 34
48 12 32 28 44
49 16 34 28 35
50 17 35 28 44
51 17 34 28 44
52 9 30 29 44
53 8 30 29 36
54 20 36 29 44
55 9 29 30 45
56 8 29 30 37
57 20 37 30 45
58 19 38 31 45
59 18 38 31 40
60 18 38 31 39
61 19 40 31 45
62 19 39 31 45
63 18 39 31 40
64 6 28 32 41
65 6 28 32 42
66 6 28 32 43
67 14 41 32 42
68 14 41 32 43
69 14 42 32 43
70 3 27 44 28
71 4 27 44 29
72 7 28 44 29
73 4 27 45 30
74 5 27 45 31
75 10 30 45 31
76 2 47 46 52
77 22 51 46 52
78 2 47 46 51
79 1 46 47 49
80 1 46 47 50
81 1 46 47 48
82 13 49 47 50
83 13 48 47 49
84 13 48 47 50

 Dihedrals

1 24 6 1 2 3
2 24 6 1 2 5
3 24 6 1 2 4
4 24 7 1 2 3
5 24 7 1 2 5
6 24 7 1 2 4
7 6 14 8 25 9
8 7 14 8 25 10
9 19 26 8 25 9
10 20 26 8 25 10
11 7 14 8 26 11
12 8 14 8 26 12
13 20 25 8 26 11
14 21 25 8 26 12
15 9 15 9 13 22
16 9 15 9 13 24
17 9 15 9 13 23
18 9 16 9 13 22
19 9 16 9 13 24
20 9 16 9 13 23
21 22 25 9 13 22
22 22 25 9 13 24
23 22 25 9 13 23
24 4 13 9 25 8
25 5 13 9 25 10
26 10 15 9 25 8
27 11 15 9 25 10
28 10 16 9 25 8
29 11 16 9 25 10
30 14 17 10 11 18
31 15 17 10 11 26
32 15 25 10 11 18
33 23 25 10 11 26
34 1 11 10 25 8
35 2 11 10 25 9
36 16 17 10 25 8
37 17 17 10 25 9
38 1 10 11 26 8
39 3 10 11 26 12
40 16 18 11 26 8
41 18 18 11 26 12
42 12 20 12 26 8
43 13 20 12 26 11
44 12 19 12 26 8
45 13 19 12 26 11
46 12 21 12 26 8
47 13 21 12 26 11
48 6 33 27 44 28
49 7 33 27 44 29
50 19 45 27 44 28
51 20 45 27 44 29
52 7 33 27 45 30
53 8 33 27 45 31
54 20 44 27 45 30
55 21 44 27 45 31
56 9 35 28 32 41
57 9 35 28 32 42
58 9 35 28 32 43
59 9 34 28 32 41
60 9 34 28 32 42
61 9 34 28 32 43
62 22 44 28 32 41
63 22 44 28 32 42
64 22 44 28 32 43
65 4 32 28 44 27
66 5 32 28 44 29
67 10 35 28 44 27
68 11 35 28 44 29
69 10 34 28 44 27
70 11 34 28 44 29
71 23 44 29 30 45
72 15 44 29 30 37
73 15 36 29 30 45
74 14 36 29 30 37
75 1 30 29 44 27
76 2 30 29 44 28
77 16 36 29 44 27
78 17 36 29 44 28
79 1 29 30 45 27
80 3 29 30 45 31
81 16 37 30 45 27
82 18 37 30 45 31
83 12 38 31 45 27
84 13 38 31 45 30
85 12 40 31 45 27
86 13 40 31 45 30
87 12 39 31 45 27
88 13 39 31 45 30
89 24 52 46 47 49
90 24 52 46 47 50
91 24 52 46 47 48
92 24 51 46 47 49
93 24 51 46 47 50
94 24 51 46 47 48

 Impropers

1 1 7 1 6 2
2 4 26 8 25 14
3 3 26 11 18 10
4 4 45 27 44 33
5 3 44 29 36 30
6 2 27 30 45 31
7 1 51 46 52 47

